P3HT mixture
33792
    1HTM     C1    1   1.801   5.673   3.071  0.0252 -0.0835 -0.0602
    1HTM     C2    2   1.712   5.770   3.105 -0.1654 -0.0138 -0.7368
    1HTM     C3    3   1.582   5.719   3.143 -0.1760  0.0188 -0.7290
    1HTM     C4    4   1.573   5.583   3.137  0.0065 -0.0265 -0.0463
    1HTM     S1    5   1.728   5.508   3.083  0.2074 -0.1143  0.6452
    2TAL     C5    6   1.469   5.816   3.191  0.5249  0.1285  0.8296
    2TAL     C6    7   1.473   5.847   3.344 -0.2431  0.3227 -0.5756
    2TAL     C7    8   1.449   5.736   3.449  0.8614  0.0057  0.1529
    2TAL     C8    9   1.315   5.657   3.436  0.1788  0.3457  0.0068
    2TAL     C9   10   1.297   5.543   3.535 -0.2591 -0.3768 -0.6874
    2TAL    C10   11   1.382   5.416   3.536 -0.4513 -0.0125  0.4865
    3HTM    C11   12   1.453   5.501   3.152  0.0728  0.1288  0.5026
    3HTM    C12   13   1.322   5.527   3.122 -0.0603  0.1037  1.0532
    3HTM    C13   14   1.238   5.410   3.128  0.1042 -0.0284  0.8136
    3HTM    C14   15   1.304   5.296   3.162  0.3627 -0.1036  0.0804
    3HTM     S2   16   1.480   5.327   3.190  0.4188 -0.0133 -0.3680
    4TAL    C15   17   1.091   5.421   3.084  0.3950 -0.3179  0.1067
    4TAL    C16   18   1.016   5.538   3.144 -0.2726 -0.3985  1.0675
    4TAL    C17   19   0.998   5.541   3.293  0.0245 -0.2559  0.5210
    4TAL    C18   20   0.897   5.646   3.330  0.6463  0.0506  0.4767
    4TAL    C19   21   0.857   5.654   3.480 -0.2715 -0.2262  0.3785
    4TAL    C20   22   0.966   5.702   3.579  0.4558  0.0279  0.0220
    5HTM    C21   23   1.263   5.150   3.170 -0.0307 -0.0221 -0.0344
    5HTM    C22   24   1.136   5.102   3.187 -0.0669  0.1740  0.2536
    5HTM    C23   25   1.128   4.958   3.186 -0.2363  0.1786  0.6812
    5HTM    C24   26   1.248   4.897   3.168 -0.3293 -0.0144  0.7193
    5HTM     S3   27   1.382   5.016   3.151 -0.2092 -0.2178  0.2141
    6TAL    C25   28   0.991   4.886   3.200  0.2000  0.3828 -0.5984
    6TAL    C26   29   0.877   4.951   3.275 -0.2825  0.3190  0.1706
    6TAL    C27   30   0.818   5.077   3.210  0.4942 -0.0226  0.4217
    6TAL    C28   31   0.717   5.137   3.304 -0.0502 -0.0072 -0.4516
    6TAL    C29   32   0.625   5.247   3.250 -0.1138 -0.1717 -0.0019
    6TAL    C30   33   0.545   5.318   3.355  0.1088  0.7148  0.2884
    7HTM    C31   34   1.302   4.765   3.159 -0.2453  0.0149  0.0924
    7HTM    C32   35   1.427   4.735   3.113 -0.0498  0.4723  0.3173
    7HTM    C33   36   1.458   4.594   3.120  0.4903  0.5994  0.4675
    7HTM    C34   37   1.357   4.518   3.171  0.7069  0.2384  0.3572
    7HTM     S4   38   1.214   4.618   3.214  0.2416 -0.2936  0.0526
    8TAL    C35   39   1.589   4.543   3.057 -0.1979 -0.3140 -0.1014
    8TAL    C36   40   1.721   4.576   3.133  0.3689  0.1101  0.5228
    8TAL    C37   41   1.849   4.528   3.056  0.6836 -0.0035  0.5875
    8TAL    C38   42   1.852   4.388   2.995  0.2374 -0.4214 -0.9804
    8TAL    C39   43   1.870   4.284   3.107  0.0721 -0.6314  0.1942
    8TAL    C40   44   1.992   4.291   3.199 -0.5026 -0.2606  0.8812
    9HTM    C41   45   1.351   4.378   3.200  0.1420 -0.2218 -0.1003
    9HTM    C42   46   1.239   4.304   3.226  0.1609 -0.0100  0.6055
    9HTM    C43   47   1.267   4.165   3.253  0.1158  0.0589  1.0195
    9HTM    C44   48   1.399   4.134   3.247  0.0624 -0.0999  0.6294
    9HTM     S5   49   1.500   4.278   3.207  0.0650 -0.3509 -0.2983
   10TAL    C45   50   1.162   4.061   3.281 -0.6097 -0.4424  0.3677
   10TAL    C46   51   1.044   4.103   3.372  0.1302 -0.6216 -0.3696
   10TAL    C47   52   1.067   4.173   3.508 -0.1112 -0.4001  0.3569
   10TAL    C48   53   1.172   4.112   3.598  0.2090 -0.4999 -0.5200
   10TAL    C49   54   1.209   4.183   3.731  0.0407  0.5639 -0.0630
   10TAL    C50   55   1.327   4.124   3.815  0.3321  0.2236 -0.1209
   11HTM    C51   56   1.479   4.020   3.275 -0.1349 -0.0389  0.0013
   11HTM    C52   57   1.615   4.025   3.287 -0.1289  0.2959 -0.1940
   11HTM    C53   58   1.675   3.898   3.315  0.2301  0.4381 -0.3159
   11HTM    C54   59   1.586   3.795   3.324  0.4978  0.2114 -0.2135
   11HTM     S6   60   1.417   3.853   3.298  0.3159 -0.2024  0.0469
   12TAL    C55   61   1.827   3.873   3.342  0.3535 -0.6102  0.3187
   12TAL    C56   62   1.926   3.986   3.344  0.8879 -0.1524 -0.3468
   12TAL    C57   63   2.061   3.922   3.368  0.1254 -0.2988  0.0481
   12TAL    C58   64   2.179   4.021   3.373 -0.3058 -0.4828 -0.6448
   12TAL    C59   65   2.316   3.953   3.405 -0.0970 -0.7148  0.1600
   12TAL    C60   66   2.434   4.049   3.402 -0.7224 -0.0351 -0.1762
   13HTM    C61   67   1.603   3.651   3.341  0.3578 -0.1889  0.3037
   13HTM    C62   68   1.702   3.580   3.403  0.3716 -0.2996  0.1560
   13HTM    C63   69   1.683   3.437   3.399  0.2521 -0.2823  0.1060
   13HTM    C64   70   1.570   3.399   3.333  0.1471 -0.1585  0.2152
   13HTM     S7   71   1.477   3.542   3.272  0.1914 -0.0533  0.3914
   14TAL    C65   72   1.785   3.349   3.459 -0.1006 -0.0626 -0.0317
   14TAL    C66   73   1.924   3.341   3.400  0.2703 -0.0312  0.1464
   14TAL    C67   74   1.999   3.215   3.443 -0.2476  0.0859  0.4922
   14TAL    C68   75   2.136   3.202   3.376  0.3263  0.2159 -0.3987
   14TAL    C69   76   2.217   3.071   3.394 -0.1216  0.1202 -0.1901
   14TAL    C70   77   2.287   3.040   3.529  0.3108  0.0676 -0.4489
   15HTM    C71   78   1.512   3.272   3.308  0.0040 -0.2582 -0.6458
   15HTM    C72   79   1.421   3.239   3.212 -0.0109 -0.4601 -0.5634
   15HTM    C73   80   1.387   3.099   3.210 -0.0474 -0.4584 -0.2315
   15HTM    C74   81   1.452   3.025   3.304 -0.0602 -0.2549 -0.0608
   15HTM     S8   82   1.563   3.127   3.403 -0.0271 -0.0482 -0.3080
   16TAL    C75   83   1.284   3.053   3.104 -0.4623  0.0583  0.5093
   16TAL    C76   84   1.145   3.104   3.123  0.0817  0.9154 -0.7519
   16TAL    C77   85   1.037   3.040   3.041  0.1209  0.1596  0.2524
   16TAL    C78   86   0.958   2.907   3.072 -0.3388  0.1438  0.3599
   16TAL    C79   87   1.038   2.781   3.104  0.0127 -0.6741  0.2572
   16TAL    C80   88   0.956   2.667   3.151 -0.1859  0.1323  0.0898
   17HTM    C81   89   1.442   2.885   3.333 -0.3791 -0.1028  0.5704
   17HTM    C82   90   1.340   2.797   3.315 -0.0572 -0.4081  0.2370
   17HTM    C83   91   1.373   2.662   3.354  0.4808 -0.4684 -0.4077
   17HTM    C84   92   1.500   2.648   3.401  0.5692 -0.2092 -0.5659
   17HTM     S9   93   1.589   2.805   3.401 -0.0249  0.1338  0.0925
   18TAL    C85   94   1.276   2.551   3.332  0.0015  0.4041  0.1961
   18TAL    C86   95   1.205   2.510   3.459 -0.2225  0.4394  0.4248
   18TAL    C87   96   1.117   2.382   3.442 -0.1126 -0.4275  0.6155
   18TAL    C88   97   1.108   2.309   3.575 -0.1194  0.2103 -0.1631
   18TAL    C89   98   1.028   2.180   3.552  0.0146 -0.5487  0.3200
   18TAL    C90   99   1.018   2.083   3.665  0.1377 -0.5308  0.4655
   19HTM    C91  100   1.567   2.538   3.463  0.3635 -0.0258  0.3277
   19HTM    C92  101   1.646   2.530   3.574  1.1275  0.0020 -0.2081
   19HTM    C93  102   1.687   2.396   3.606  1.2475 -0.0041 -0.3846
   19HTM    C94  103   1.639   2.302   3.520  0.5750 -0.0363  0.0167
   19HTM    S10  104   1.538   2.376   3.391 -0.2686 -0.0619  0.6534
   20TAL    C95  105   1.775   2.369   3.732 -0.4139  0.2549  0.5999
   20TAL    C96  106   1.906   2.452   3.737  0.0741  0.3224  0.7297
   20TAL    C97  107   2.013   2.379   3.816 -0.1811 -0.2655 -0.1458
   20TAL    C98  108   2.151   2.442   3.809  0.1268  0.2799 -0.3118
   20TAL    C99  109   2.216   2.420   3.670 -0.4878  0.1321 -0.6768
   20TAL   C100  110   2.349   2.490   3.646  0.1974  0.2696  0.1048
   21HTM   C101  111   1.657   2.158   3.520  0.5938  0.4002 -0.2325
   21HTM   C102  112   1.558   2.067   3.497  0.3293  0.6752 -0.1905
   21HTM   C103  113   1.599   1.931   3.518 -0.1072  0.5737  0.0184
   21HTM   C104  114   1.729   1.918   3.556 -0.1756  0.2210  0.1356
   21HTM    S11  115   1.811   2.078   3.569  0.3099 -0.0118 -0.0100
   22TAL   C105  116   1.509   1.810   3.484 -0.4401  0.0794  0.1584
   22TAL   C106  117   1.379   1.829   3.401 -0.1826  0.3079  0.3855
   22TAL   C107  118   1.303   1.692   3.395 -0.0863  0.2962  0.3594
   22TAL   C108  119   1.168   1.687   3.314 -0.6857 -0.6131 -0.2329
   22TAL   C109  120   1.046   1.780   3.350  0.3783  0.0684 -0.0200
   22TAL   C110  121   0.999   1.790   3.496  0.2849 -0.1425  0.2918
   23HTM   C111  122   1.811   1.803   3.603  0.0664  0.3611  0.4849
   23HTM   C112  123   1.938   1.764   3.574  0.0364  0.4053  0.2954
   23HTM   C113  124   1.983   1.650   3.649  0.0591  0.1950 -0.0330
   23HTM   C114  125   1.890   1.602   3.737  0.1066 -0.0095 -0.0942
   23HTM    S12  126   1.737   1.698   3.730  0.1262  0.0480  0.2612
   24TAL   C115  127   2.125   1.594   3.638 -0.2076 -0.1941  0.6215
   24TAL   C116  128   2.245   1.698   3.608 -0.0856  0.8512 -0.1910
   24TAL   C117  129   2.362   1.613   3.564  0.7377  0.2168 -0.4454
   24TAL   C118  130   2.467   1.704   3.498 -0.2282  0.4289  0.2763
   24TAL   C119  131   2.598   1.633   3.488 -0.1723  0.0169 -0.2519
   24TAL   C120  132   2.691   1.714   3.400  0.6856 -0.2362  0.4014
   25HTM   C121  133   1.887   1.490   3.828 -0.4974 -0.2939 -0.1140
   25HTM   C122  134   1.942   1.368   3.803 -0.7232 -0.3957 -0.1123
   25HTM   C123  135   1.905   1.268   3.900 -0.6559 -0.2490  0.0644
   25HTM   C124  136   1.823   1.314   3.999 -0.3790 -0.0354  0.1978
   25HTM    S13  137   1.784   1.489   3.976 -0.1801 -0.0026  0.1095
   26TAL   C125  138   1.953   1.122   3.883 -0.2487  0.1948  0.1442
   26TAL   C126  139   2.093   1.095   3.831  0.6283  1.2493  0.5965
   26TAL   C127  140   2.199   1.130   3.940  0.1279 -0.2435 -0.5118
   26TAL   C128  141   2.349   1.160   3.911  0.3133 -0.1852 -0.2421
   26TAL   C129  142   2.368   1.280   3.814 -0.4153  0.0988  0.1475
   26TAL   C130  143   2.512   1.280   3.755  0.1218  0.1754  0.1739
   27HTM   C131  144   1.790   1.239   4.118  0.0053 -0.2384 -0.1276
   27HTM   C132  145   1.668   1.194   4.159  0.1687 -0.8277 -0.2897
   27HTM   C133  146   1.672   1.121   4.283  0.3708 -0.9010 -0.3381
   27HTM   C134  147   1.797   1.111   4.337  0.3616 -0.3677 -0.2133
   27HTM    S14  148   1.920   1.193   4.235  0.0947  0.2734 -0.0230
   28TAL   C135  149   1.554   1.038   4.336  0.4076  0.3488  0.5011
   28TAL   C136  150   1.421   1.119   4.336 -0.0741  0.1286 -0.4954
   28TAL   C137  151   1.311   1.071   4.436 -0.0365 -0.1068 -0.0934
   28TAL   C138  152   1.247   0.934   4.413 -0.2056 -0.2060 -0.2457
   28TAL   C139  153   1.181   0.915   4.275 -0.4909 -0.8305 -0.2011
   28TAL   C140  154   1.123   0.773   4.253 -0.4021 -0.1524 -0.6879
   29HTM   C141  155   1.841   1.039   4.458  0.1039  0.4783 -0.0808
   29HTM   C142  156   1.796   0.928   4.522 -0.1688  0.6399  0.0088
   29HTM   C143  157   1.885   0.881   4.625 -0.2895  0.5115  0.0539
   29HTM   C144  158   1.998   0.956   4.639 -0.1089  0.2520 -0.0005
   29HTM    S15  159   2.001   1.094   4.522  0.2304  0.1488 -0.1143
   30TAL   C145  160   1.853   0.767   4.720 -0.2831 -0.1840 -0.0762
   30TAL   C146  161   1.906   0.627   4.680  0.3823  0.2598  0.0526
   30TAL   C147  162   1.924   0.592   4.533 -0.0535  0.6621 -0.0090
   30TAL   C148  163   1.943   0.438   4.494 -0.0432 -0.4595  0.1842
   30TAL   C149  164   2.063   0.373   4.562 -0.7693  1.0798 -0.6049
   30TAL   C150  165   2.096   0.240   4.496  0.1255 -0.2398  0.8486
   31HTM   C151  166   2.126   0.938   4.700 -0.1770 -0.0650  0.3504
   31HTM   C152  167   2.191   0.818   4.698 -0.1733 -0.0686  0.6166
   31HTM   C153  168   2.334   0.829   4.709 -0.1690 -0.0354  0.5279
   31HTM   C154  169   2.378   0.958   4.720 -0.1693 -0.0065  0.1944
   31HTM    S16  170   2.241   1.075   4.717 -0.1753 -0.0191 -0.0354
   32TAL   C155  171   2.439   0.715   4.696 -0.6757 -0.2641  0.4892
   32TAL   C156  172   2.399   0.575   4.748 -0.4442 -0.1729 -0.3516
   32TAL   C157  173   2.398   0.555   4.902 -0.2367  0.6035  0.0273
   32TAL   C158  174   2.289   0.615   4.986  1.0628  0.3252 -0.1884
   32TAL   C159  175   2.149   0.571   4.944 -0.0898 -0.8525  0.3662
   32TAL   C160  176   2.064   0.667   5.028 -0.4611  0.0173  0.2490
   33HTM   C161  177   2.507   1.027   4.743 -0.3869  0.1649 -0.3368
   33HTM   C162  178   2.524   1.156   4.784 -0.8993  0.3821 -0.7994
   33HTM   C163  179   2.658   1.204   4.770 -0.9780  0.6969 -0.4919
   33HTM   C164  180   2.744   1.112   4.718 -0.5254  0.7198  0.2049
   33HTM    S17  181   2.661   0.956   4.683  0.0393  0.3425  0.5295
   34TAL   C165  182   2.697   1.344   4.802 -0.5379 -0.7198  0.0009
   34TAL   C166  183   2.607   1.463   4.774 -0.8280 -0.7963 -0.1328
   34TAL   C167  184   2.585   1.490   4.624  0.8168  0.0144  1.0149
   34TAL   C168  185   2.503   1.615   4.595  0.0438  0.5042  0.0673
   34TAL   C169  186   2.508   1.667   4.454 -0.9755  0.1894 -0.1579
   34TAL   C170  187   2.412   1.783   4.442 -0.3128 -0.3873  0.1684
   35HTM   C171  188   2.886   1.108   4.680  0.1429 -0.1320  0.2459
   35HTM   C172  189   2.957   1.014   4.611  0.0960 -0.2059  0.2978
   35HTM   C173  190   3.098   1.042   4.603  0.0999 -0.2465  0.2248
   35HTM   C174  191   3.135   1.157   4.666  0.1500 -0.2037  0.1174
   35HTM    S18  192   2.993   1.240   4.741  0.1966 -0.1079  0.1000
   36TAL   C175  193   3.197   0.949   4.541 -0.8625 -0.2254 -0.6961
   36TAL   C176  194   3.160   0.814   4.482 -0.2027  0.7411  0.4473
   36TAL   C177  195   3.078   0.828   4.357 -0.7283  0.1334  0.4103
   36TAL   C178  196   3.012   0.706   4.304 -0.1330  0.1639  0.3030
   36TAL   C179  197   2.911   0.633   4.393 -0.0741 -0.4282 -0.7724
   36TAL   C180  198   2.877   0.502   4.339  0.2167  0.0862  0.2564
   37HTM   C181  199   3.256   1.231   4.669 -0.0808  0.0369  0.4093
   37HTM   C182  200   3.378   1.224   4.608  0.1900 -0.3355  0.9847
   37HTM   C183  201   3.464   1.335   4.639  0.2401 -0.4022  1.0853
   37HTM   C184  202   3.408   1.426   4.723  0.0075 -0.0807  0.5864
   37HTM    S19  203   3.241   1.379   4.771 -0.2954  0.3345 -0.0535
   38TAL   C185  204   3.611   1.337   4.592 -0.7875 -0.0054 -0.2679
   38TAL   C186  205   3.663   1.225   4.499 -0.2341 -0.1596 -0.7513
   38TAL   C187  206   3.812   1.232   4.487  0.1550 -0.3974 -0.3750
   38TAL   C188  207   3.867   1.145   4.378 -0.0273  0.0281  0.1995
   38TAL   C189  208   4.011   1.152   4.343 -0.1000 -0.0121  0.2891
   38TAL   C190  209   4.039   1.065   4.223 -0.0776 -0.4967  0.3391
   39HTM   C191  210   3.460   1.548   4.776  0.0563 -0.1544 -0.1144
   39HTM   C192  211   3.461   1.574   4.910  0.2581 -0.0504 -0.1354
   39HTM   C193  212   3.451   1.714   4.942  0.1992 -0.0334 -0.2272
   39HTM   C194  213   3.443   1.795   4.832 -0.0477 -0.1245 -0.2765
   39HTM    S20  214   3.447   1.700   4.679 -0.2259 -0.2397 -0.2096
   40TAL   C195  215   3.464   1.765   5.090  0.1038 -0.5233  0.4304
   40TAL   C196  216   3.354   1.702   5.182 -0.1613 -0.8373  0.5910
   40TAL   C197  217   3.371   1.731   5.327  0.1251  0.0474 -0.6674
   40TAL   C198  218   3.490   1.676   5.405 -0.4010 -0.4085  0.6111
   40TAL   C199  219   3.532   1.531   5.389  0.2770  0.3036 -0.0052
   40TAL   C200  220   3.666   1.488   5.458  0.2487 -0.4081 -0.1525
   41HTM   C201  221   3.429   1.939   4.817  0.3418 -0.1289  0.3425
   41HTM   C202  222   3.328   2.025   4.848  0.4071 -0.0318  0.2868
   41HTM   C203  223   3.336   2.152   4.780  0.3636 -0.1779  0.0086
   41HTM   C204  224   3.444   2.163   4.697  0.2651 -0.3862 -0.1484
   41HTM    S21  225   3.545   2.013   4.699  0.2195 -0.4144  0.0446
   42TAL   C205  226   3.226   2.263   4.810 -0.3022 -0.4103 -0.3201
   42TAL   C206  227   3.083   2.230   4.842 -0.2258 -0.2456  0.0709
   42TAL   C207  228   3.012   2.348   4.908  0.4330  0.0359 -0.3288
   42TAL   C208  229   2.855   2.329   4.919 -0.4446  0.2037 -0.2738
   42TAL   C209  230   2.774   2.447   4.988 -0.2228 -0.2929 -1.0121
   42TAL   C210  231   2.626   2.419   4.988 -0.0130 -0.8940 -0.2063
   43HTM   C211  232   3.496   2.270   4.617 -0.2982 -0.0332 -0.4918
   43HTM   C212  233   3.624   2.279   4.571 -0.2213 -0.0448 -0.2794
   43HTM   C213  234   3.658   2.410   4.522  0.0089  0.0700  0.1814
   43HTM   C214  235   3.556   2.500   4.531  0.1076  0.1691  0.3209
   43HTM    S22  236   3.408   2.426   4.601 -0.0842  0.1250 -0.1228
   44TAL   C215  237   3.796   2.440   4.473  0.0219 -0.2618 -0.3886
   44TAL   C216  238   3.845   2.342   4.367  1.0286  0.6721  0.4096
   44TAL   C217  239   3.990   2.350   4.343 -0.1065  0.1647 -0.2688
   44TAL   C218  240   4.085   2.286   4.442  0.3773 -0.4777  0.2427
   44TAL   C219  241   4.068   2.141   4.476 -0.6421  0.1133 -0.2877
   44TAL   C220  242   4.187   2.089   4.565  0.1969  0.3734 -0.2669
   45HTM   C221  243   3.556   2.641   4.503  0.4960  0.0937 -0.6006
   45HTM   C222  244   3.518   2.706   4.389  0.3781  0.0651 -0.5777
   45HTM   C223  245   3.556   2.845   4.387 -0.1719  0.2216 -0.3805
   45HTM   C224  246   3.623   2.885   4.498 -0.4737  0.3693 -0.2529
   45HTM    S23  247   3.643   2.751   4.616 -0.0833  0.3220 -0.3728
   46TAL   C225  248   3.537   2.926   4.266 -0.1418 -0.3973 -0.7348
   46TAL   C226  249   3.633   2.900   4.154 -0.3131 -0.1675  0.0717
   46TAL   C227  250   3.783   2.930   4.169 -0.2710  0.9602  0.2587
   46TAL   C228  251   3.810   3.075   4.206 -0.2341  0.4252  0.1202
   46TAL   C229  252   3.961   3.102   4.232  1.1377  0.2654 -0.4805
   46TAL   C230  253   3.981   3.247   4.251  0.6513 -0.0371  0.1688
   47HTM   C231  254   3.670   3.017   4.529 -0.0759 -0.0753 -0.0744
   47HTM   C232  255   3.787   3.046   4.594 -0.1245 -0.1012  0.0260
   47HTM   C233  256   3.807   3.187   4.616 -0.1329 -0.1090  0.0811
   47HTM   C234  257   3.706   3.265   4.570 -0.0908 -0.0888  0.0227
   47HTM    S24  258   3.576   3.167   4.493 -0.0368 -0.0585 -0.1073
   48TAL   C235  259   3.919   3.232   4.713 -0.1253 -0.0431  0.0485
   48TAL   C236  260   3.943   3.392   4.726  0.4029  0.2500 -1.3415
   48TAL   C237  261   4.017   3.447   4.596 -0.0357 -0.3872  0.0121
   48TAL   C238  262   4.162   3.404   4.564  0.3576 -0.5735 -0.3507
   48TAL   C239  263   4.225   3.453   4.436  0.7801 -0.5511  0.9021
   48TAL   C240  264   4.355   3.381   4.416 -0.0849 -0.2621 -0.3235
    1HTM     C1  265   2.884   2.379   3.468 -0.2443 -0.1879 -0.0841
    1HTM     C2  266   2.969   2.291   3.408 -0.6275 -0.4326 -0.2708
    1HTM     C3  267   3.025   2.339   3.285 -0.6775 -0.5534 -0.3413
    1HTM     C4  268   2.984   2.464   3.250 -0.3321 -0.4007 -0.2081
    1HTM     S1  269   2.869   2.531   3.372  0.0861 -0.0904  0.0183
    2TAL     C5  270   3.132   2.255   3.215 -0.3243  0.1157  0.2513
    2TAL     C6  271   3.162   2.258   3.068  0.0646  0.1732 -0.1505
    2TAL     C7  272   3.296   2.310   3.031 -0.4983 -0.6167  0.9886
    2TAL     C8  273   3.312   2.314   2.878  0.7452 -0.1595 -0.0486
    2TAL     C9  274   3.454   2.346   2.838 -0.0566 -0.5254  0.0162
    2TAL    C10  275   3.464   2.307   2.689  0.2029 -0.3711 -0.3984
    3HTM    C11  276   3.010   2.541   3.136  0.0504  0.2654 -0.5022
    3HTM    C12  277   2.925   2.556   3.030  0.3220  0.1533 -0.7378
    3HTM    C13  278   2.983   2.624   2.918  0.5740  0.1397 -0.6160
    3HTM    C14  279   3.113   2.662   2.938  0.4947  0.2411 -0.2875
    3HTM     S2  280   3.172   2.613   3.101  0.0925  0.3630 -0.1052
    4TAL    C15  281   2.899   2.649   2.794  0.1942  1.0892 -0.8091
    4TAL    C16  282   2.849   2.523   2.716 -0.7239  0.5727  0.2308
    4TAL    C17  283   2.950   2.414   2.674  0.5769  0.1754 -0.7935
    4TAL    C18  284   3.065   2.455   2.582 -0.2643  0.1582  0.4962
    4TAL    C19  285   3.022   2.490   2.441 -0.6011  0.4351  0.1793
    4TAL    C20  286   3.138   2.527   2.357  0.3716  0.3820 -0.0679
    5HTM    C21  287   3.216   2.707   2.847  0.4794  0.7474  0.2836
    5HTM    C22  288   3.350   2.684   2.860  0.5622  1.2726  0.3952
    5HTM    C23  289   3.430   2.740   2.755  0.3481  0.9240  0.0432
    5HTM    C24  290   3.357   2.807   2.661  0.1020  0.1330 -0.3367
    5HTM     S3  291   3.181   2.803   2.699  0.1220 -0.2359 -0.2789
    6TAL    C25  292   3.578   2.706   2.746 -0.3690  0.7315 -0.8933
    6TAL    C26  293   3.682   2.789   2.671  0.4642  0.1465  0.2617
    6TAL    C27  294   3.728   2.918   2.733  0.0730  0.0779  0.1762
    6TAL    C28  295   3.867   2.971   2.676  0.9564 -0.0275 -0.6674
    6TAL    C29  296   3.990   2.900   2.728  0.3130  0.1136  0.0223
    6TAL    C30  297   4.109   2.991   2.716 -0.1094  0.7433  0.2673
    7HTM    C31  298   3.386   2.872   2.532  0.5291  0.2566 -0.3105
    7HTM    C32  299   3.473   2.973   2.505  0.3768  0.3288 -0.5419
    7HTM    C33  300   3.451   3.037   2.378  0.0460  0.2514 -0.5242
    7HTM    C34  301   3.346   2.985   2.308 -0.0539  0.1203 -0.2788
    7HTM     S4  302   3.267   2.850   2.398  0.2648  0.0842 -0.0501
    8TAL    C35  303   3.536   3.151   2.328  0.0646  0.4158  0.5646
    8TAL    C36  304   3.682   3.173   2.366 -0.1804  0.2127  0.6248
    8TAL    C37  305   3.762   3.284   2.298 -0.4796 -0.5726 -0.3541
    8TAL    C38  306   3.735   3.427   2.325  0.4468  0.5124 -0.1882
    8TAL    C39  307   3.837   3.532   2.273 -0.3846 -0.5196 -0.2744
    8TAL    C40  308   3.786   3.667   2.304 -0.0910  0.1204 -0.2897
    9HTM    C41  309   3.298   3.003   2.177  0.2493 -0.0720  0.0499
    9HTM    C42  310   3.210   2.918   2.116  0.3624 -0.2416  0.1221
    9HTM    C43  311   3.166   2.963   1.987  0.1869 -0.3382  0.1478
    9HTM    C44  312   3.220   3.083   1.949 -0.0596 -0.2422  0.0952
    9HTM     S5  313   3.332   3.147   2.075 -0.0899 -0.0207  0.0086
   10TAL    C45  314   3.073   2.877   1.901 -0.1144 -0.3842 -0.8868
   10TAL    C46  315   3.100   2.730   1.913 -0.3371 -0.3782 -0.5192
   10TAL    C47  316   2.996   2.636   1.863 -0.4007  0.5605 -0.5662
   10TAL    C48  317   3.024   2.486   1.887 -0.1527 -0.4715  0.3697
   10TAL    C49  318   3.021   2.421   2.026  0.2788  0.6459 -0.0612
   10TAL    C50  319   2.875   2.419   2.074 -0.7224  0.0106  0.6705
   11HTM    C51  320   3.202   3.163   1.829 -0.3035  0.5823  0.4259
   11HTM    C52  321   3.281   3.268   1.795 -0.4108  0.6588  0.4152
   11HTM    C53  322   3.246   3.329   1.669 -0.2776  0.4191  0.2633
   11HTM    C54  323   3.141   3.269   1.607 -0.0689  0.1597  0.1581
   11HTM     S6  324   3.077   3.130   1.704 -0.0239  0.1985  0.2436
   12TAL    C55  325   3.322   3.448   1.620  0.0493 -0.8066 -0.0169
   12TAL    C56  326   3.474   3.430   1.587  0.6185 -0.2748  0.0617
   12TAL    C57  327   3.507   3.343   1.470 -0.1108  0.2864 -0.7032
   12TAL    C58  328   3.447   3.370   1.335 -0.0836 -0.3627 -0.2402
   12TAL    C59  329   3.488   3.275   1.227 -0.1930  0.4170  0.4165
   12TAL    C60  330   3.403   3.298   1.101  0.0243 -0.0237  0.7607
   13HTM    C61  331   3.054   3.319   1.493 -0.2455 -0.0861  0.0186
   13HTM    C62  332   3.078   3.411   1.397 -0.2170  0.0862  0.1907
   13HTM    C63  333   2.967   3.432   1.307 -0.1422  0.1463  0.1121
   13HTM    C64  334   2.859   3.355   1.336 -0.1140  0.0200 -0.1201
   13HTM     S7  335   2.888   3.249   1.479 -0.1799 -0.1864 -0.2584
   14TAL    C65  336   2.973   3.530   1.188  0.0502  0.3791  0.0288
   14TAL    C66  337   3.091   3.634   1.175 -0.3608 -0.3898  0.3659
   14TAL    C67  338   3.084   3.730   1.054  0.3831 -0.4587 -0.0980
   14TAL    C68  339   3.093   3.675   0.912  0.7010  0.5283  0.0112
   14TAL    C69  340   3.222   3.599   0.878  0.2056 -0.2607 -0.3048
   14TAL    C70  341   3.231   3.526   0.742 -0.3016  0.2753  0.7272
   15HTM    C71  342   2.737   3.331   1.263  0.2246  0.0593 -0.2538
   15HTM    C72  343   2.627   3.412   1.266  0.4846  0.4249 -0.5096
   15HTM    C73  344   2.507   3.348   1.220  0.3055  0.7116 -0.4427
   15HTM    C74  345   2.524   3.218   1.182 -0.0910  0.5643 -0.1358
   15HTM     S8  346   2.696   3.167   1.201 -0.2703  0.0485  0.0943
   16TAL    C75  347   2.374   3.419   1.197 -0.3311 -0.0394  0.1846
   16TAL    C76  348   2.333   3.526   1.294 -0.3808 -0.0595 -0.0757
   16TAL    C77  349   2.187   3.565   1.283 -0.2352 -0.5081 -0.6382
   16TAL    C78  350   2.153   3.671   1.391  0.3481 -0.1337  0.3080
   16TAL    C79  351   2.008   3.725   1.388  0.3939  0.2208  0.0873
   16TAL    C80  352   2.012   3.852   1.468  0.7288  0.4276 -0.3184
   17HTM    C81  353   2.427   3.116   1.138  0.0008 -0.4204  0.3175
   17HTM    C82  354   2.467   3.003   1.073 -0.0421 -0.2469 -0.0155
   17HTM    C83  355   2.362   2.906   1.054 -0.1473 -0.0256 -0.5661
   17HTM    C84  356   2.242   2.945   1.104 -0.1845 -0.0305 -0.6528
   17HTM     S9  357   2.251   3.109   1.180 -0.0891 -0.3171 -0.0411
   18TAL    C85  358   2.396   2.776   0.980  0.4872  0.1824 -0.1589
   18TAL    C86  359   2.439   2.775   0.826 -0.3317  0.4105 -0.1808
   18TAL    C87  360   2.560   2.862   0.795  0.0486  0.3707 -0.8737
   18TAL    C88  361   2.591   2.842   0.648 -0.0378  0.7041 -0.0239
   18TAL    C89  362   2.701   2.934   0.608 -0.4651 -0.1308  0.0861
   18TAL    C90  363   2.769   2.904   0.475  0.7372  0.4289  0.1565
   19HTM    C91  364   2.111   2.885   1.111  0.1094  0.4936 -0.7840
   19HTM    C92  365   1.989   2.944   1.131  0.1062  0.5211 -0.8854
   19HTM    C93  366   1.881   2.850   1.148  0.1686  0.5401 -0.3664
   19HTM    C94  367   1.921   2.719   1.141  0.2195  0.5272  0.1308
   19HTM    S10  368   2.098   2.705   1.112  0.1923  0.4897 -0.0192
   20TAL    C95  369   1.736   2.903   1.172  0.2310  0.1369 -0.5536
   20TAL    C96  370   1.643   2.905   1.048 -0.1015  1.0824 -0.1802
   20TAL    C97  371   1.661   3.040   0.978 -0.4423  0.3624 -1.0514
   20TAL    C98  372   1.605   3.052   0.839  0.0900 -0.0781  0.2828
   20TAL    C99  373   1.450   3.074   0.825 -0.3433  0.6624 -0.5613
   20TAL   C100  374   1.416   3.111   0.682  0.0768  0.2224 -0.2879
   21HTM   C101  375   1.834   2.602   1.144 -0.0978 -0.0269  0.1446
   21HTM   C102  376   1.791   2.524   1.248 -0.2213 -0.2505 -0.0750
   21HTM   C103  377   1.703   2.418   1.207  0.0185 -0.3123 -0.4432
   21HTM   C104  378   1.678   2.415   1.073  0.3248 -0.1362 -0.5043
   21HTM    S11  379   1.765   2.547   0.987  0.3344  0.1238 -0.0984
   22TAL   C105  380   1.644   2.325   1.308  0.1695  0.0045 -0.6122
   22TAL   C106  381   1.741   2.214   1.360  0.6792  0.7539 -0.2639
   22TAL   C107  382   1.797   2.101   1.270 -0.4228 -0.5743 -0.0636
   22TAL   C108  383   1.689   2.008   1.218 -0.3864 -0.3663 -0.1458
   22TAL   C109  384   1.735   1.928   1.096  0.3545 -0.1981  0.0930
   22TAL   C110  385   1.674   1.796   1.048  0.3843  0.0279  0.0563
   23HTM   C111  386   1.592   2.327   0.987  0.0115  0.2984  0.2898
   23HTM   C112  387   1.629   2.224   0.905  0.1388  0.2688  0.3837
   23HTM   C113  388   1.520   2.166   0.832  0.2395  0.1878  0.2970
   23HTM   C114  389   1.399   2.225   0.858  0.1889  0.1555  0.1370
   23HTM    S12  390   1.415   2.358   0.978  0.0087  0.2257  0.0830
   24TAL   C115  391   1.536   2.053   0.723 -0.0391  0.1505 -0.0405
   24TAL   C116  392   1.680   2.025   0.675 -0.3446 -0.2624 -0.8487
   24TAL   C117  393   1.697   1.900   0.588  0.5678 -0.2116  0.4935
   24TAL   C118  394   1.841   1.853   0.562  0.2254 -0.6534  0.3594
   24TAL   C119  395   1.840   1.745   0.458  0.5112  0.6077 -0.1149
   24TAL   C120  396   1.984   1.707   0.438 -0.0276  0.1111 -0.0997
   25HTM   C121  397   1.263   2.202   0.800 -0.4030 -0.2466  0.5058
   25HTM   C122  398   1.188   2.089   0.798 -0.7318 -0.0213  0.0719
   25HTM   C123  399   1.055   2.109   0.746 -0.5180  0.4627 -0.2967
   25HTM   C124  400   1.029   2.238   0.709 -0.0262  0.6065 -0.1438
   25HTM    S13  401   1.172   2.344   0.736  0.2069  0.1382  0.4824
   26TAL   C125  402   0.952   1.991   0.739 -0.5570 -0.3615 -0.3549
   26TAL   C126  403   0.911   1.922   0.875 -0.3094  0.6279  0.4527
   26TAL   C127  404   0.810   1.804   0.863 -0.1004  0.7175  0.7584
   26TAL   C128  405   0.859   1.688   0.775  0.3083  0.0571 -0.0319
   26TAL   C129  406   0.757   1.583   0.732  0.1240  0.3747 -0.5914
   26TAL   C130  407   0.802   1.465   0.640 -0.7377 -0.3566  0.0921
   27HTM   C131  408   0.909   2.309   0.665  0.1706 -0.0102 -0.2614
   27HTM   C132  409   0.909   2.436   0.614  0.2205  0.0439 -0.1251
   27HTM   C133  410   0.780   2.479   0.565  0.1564  0.2733  0.2372
   27HTM   C134  411   0.682   2.385   0.578  0.0578  0.3943  0.3772
   27HTM    S14  412   0.745   2.233   0.653  0.0379  0.2265  0.0598
   28TAL   C135  413   0.764   2.617   0.508 -0.3584  0.6787  0.4478
   28TAL   C136  414   0.808   2.744   0.584  0.4028 -0.2790  0.2369
   28TAL   C137  415   0.728   2.789   0.706  0.1973  0.2626 -0.0982
   28TAL   C138  416   0.583   2.788   0.706  1.0804  0.3668 -0.0388
   28TAL   C139  417   0.514   2.871   0.596 -0.6301  0.2321  0.1240
   28TAL   C140  418   0.372   2.824   0.565 -0.0242  0.4427 -0.3585
   29HTM   C141  419   0.548   2.388   0.529  0.1917  0.4557 -0.2134
   29HTM   C142  420   0.498   2.348   0.408  0.6358  0.6435 -0.4600
   29HTM   C143  421   0.355   2.358   0.398  0.6245  0.1819 -0.7914
   29HTM   C144  422   0.295   2.406   0.511  0.1718 -0.3578 -0.7973
   29HTM    S15  423   0.416   2.442   0.640 -0.2788 -0.3249 -0.3817
   30TAL   C145  424   0.294   2.318   0.271  0.0515 -0.5278  0.8256
   30TAL   C146  425   0.330   2.398   0.148 -0.3168 -0.7087  0.0543
   30TAL   C147  426   0.276   2.539   0.153 -0.1391 -0.7637 -0.2524
   30TAL   C148  427   0.354   2.640   0.068  0.1827  0.4444  0.2977
   30TAL   C149  428   0.504   2.659   0.095  0.2156 -0.2396 -0.7844
   30TAL   C150  429   0.541   2.739   0.220  0.3508 -0.1193  0.3863
   31HTM   C151  430   0.153   2.415   0.548 -0.1467 -0.2485 -0.3931
   31HTM   C152  431   0.062   2.491   0.481 -0.1021 -0.1202 -0.3077
   31HTM   C153  432  -0.074   2.471   0.525 -0.0563  0.2875  0.0198
   31HTM   C154  433  -0.086   2.380   0.626 -0.0673  0.4701  0.1841
   31HTM    S16  434   0.074   2.312   0.673 -0.1347  0.1386 -0.0639
   32TAL   C155  435  -0.186   2.532   0.451  0.2810  0.4961  0.1463
   32TAL   C156  436  -0.178   2.675   0.395 -0.2205 -0.0846  0.0345
   32TAL   C157  437  -0.090   2.696   0.272 -0.1126 -0.2878 -0.4943
   32TAL   C158  438  -0.063   2.836   0.239  0.4859  0.5155  0.4153
   32TAL   C159  439   0.034   2.858   0.130 -0.0561  0.2043  0.1435
   32TAL   C160  440   0.042   2.998   0.076  0.4317 -0.1409  0.2502
   33HTM   C161  441  -0.196   2.312   0.682 -0.1318  0.1454  0.3969
   33HTM   C162  442  -0.196   2.179   0.710  0.3099  0.2633  0.9821
   33HTM   C163  443  -0.309   2.135   0.788  0.3443  0.1996  0.9972
   33HTM   C164  444  -0.395   2.236   0.821 -0.0700  0.0331  0.4234
   33HTM    S17  445  -0.340   2.394   0.754 -0.5408 -0.0567 -0.1852
   34TAL   C165  446  -0.331   1.990   0.811  1.3200  0.5083  0.2620
   34TAL   C166  447  -0.381   1.897   0.702  0.5152 -0.2352  0.0280
   34TAL   C167  448  -0.425   1.748   0.735 -0.4279  0.1634  0.1263
   34TAL   C168  449  -0.520   1.740   0.853  0.8641 -0.3325  0.2046
   34TAL   C169  450  -0.543   1.591   0.881 -0.2022  0.2180  0.3195
   34TAL   C170  451  -0.619   1.547   1.002 -0.1517  0.0214  0.1788
   35HTM   C171  452  -0.519   2.225   0.894 -0.1108  0.1662  0.2279
   35HTM   C172  453  -0.614   2.128   0.876 -0.1373  0.2228  0.0612
   35HTM   C173  454  -0.732   2.148   0.956 -0.2608  0.2868 -0.1374
   35HTM   C174  455  -0.728   2.260   1.034 -0.3287  0.2790 -0.1222
   35HTM    S18  456  -0.572   2.349   1.014 -0.2403  0.1894  0.1464
   36TAL   C175  457  -0.847   2.049   0.937  0.0611 -0.6309  0.3318
   36TAL   C176  458  -0.834   1.907   1.005  0.1357 -0.6628 -0.5496
   36TAL   C177  459  -0.844   1.912   1.156  0.7633 -0.4149 -0.7372
   36TAL   C178  460  -0.736   1.836   1.234  0.1270  0.0074  0.6790
   36TAL   C179  461  -0.586   1.875   1.228  0.0029 -0.2417  0.5425
   36TAL   C180  462  -0.554   2.015   1.246  0.0430  0.1830 -0.5630
   37HTM   C181  463  -0.832   2.312   1.124 -0.6237 -0.2314  0.3215
   37HTM   C182  464  -0.933   2.247   1.189 -0.6723  0.0554  0.5355
   37HTM   C183  465  -1.025   2.335   1.257 -0.4578  0.3328  0.4675
   37HTM   C184  466  -0.994   2.467   1.243 -0.2450  0.2573  0.2016
   37HTM    S19  467  -0.845   2.491   1.144 -0.2998 -0.1731  0.0150
   38TAL   C185  468  -1.153   2.275   1.325 -0.8108 -0.1904 -0.1600
   38TAL   C186  469  -1.213   2.142   1.284  0.1888  0.1684  0.3914
   38TAL   C187  470  -1.265   2.130   1.144 -0.4997  0.4201  0.6050
   38TAL   C188  471  -1.336   1.998   1.101 -0.2963 -0.1111  0.1673
   38TAL   C189  472  -1.262   1.872   1.131 -0.0706 -0.1373  0.5063
   38TAL   C190  473  -1.330   1.754   1.067 -0.1572 -0.5781  0.0652
   39HTM   C191  474  -1.057   2.585   1.299  0.1350 -0.2524  0.7065
   39HTM   C192  475  -0.992   2.701   1.330  0.0696 -0.2120  0.6890
   39HTM   C193  476  -1.080   2.806   1.376 -0.0875 -0.0056 -0.0644
   39HTM   C194  477  -1.211   2.770   1.380 -0.1424  0.1111 -0.6215
   39HTM    S20  478  -1.234   2.599   1.327  0.0015 -0.0315 -0.2347
   40TAL   C195  479  -1.019   2.945   1.414 -0.1080  0.3576 -0.3410
   40TAL   C196  480  -0.926   3.017   1.318  0.5607 -0.4619 -0.7025
   40TAL   C197  481  -0.876   3.160   1.357 -0.0258 -0.4197  0.3151
   40TAL   C198  482  -0.832   3.265   1.247 -1.1585 -0.0407 -0.2618
   40TAL   C199  483  -0.744   3.374   1.314  0.1702 -0.0969  0.2192
   40TAL   C200  484  -0.675   3.464   1.210  0.6114  0.2484 -0.2950
   41HTM   C201  485  -1.331   2.850   1.399 -0.3487 -0.1864  0.0562
   41HTM   C202  486  -1.460   2.807   1.391 -0.4361  0.0951 -0.0516
   41HTM   C203  487  -1.557   2.911   1.410 -0.2246  0.3437 -0.3226
   41HTM   C204  488  -1.502   3.034   1.433  0.0246  0.2514 -0.4213
   41HTM    S21  489  -1.322   3.027   1.432  0.0112 -0.1593 -0.1779
   42TAL   C205  490  -1.706   2.891   1.412  0.1912  0.5238  0.1008
   42TAL   C206  491  -1.758   2.747   1.407  0.1054  0.0998  0.1902
   42TAL   C207  492  -1.908   2.736   1.406  0.1503 -0.6961  0.5480
   42TAL   C208  493  -1.965   2.596   1.418  0.1594  0.2482 -0.5579
   42TAL   C209  494  -1.924   2.508   1.526  0.4707  0.4312 -0.4399
   42TAL   C210  495  -2.000   2.550   1.659 -0.2291  0.4135  0.1070
   43HTM   C211  496  -1.556   3.173   1.451  0.3056  0.0862 -0.1598
   43HTM   C212  497  -1.682   3.216   1.482  0.3734  0.0792  0.1278
   43HTM   C213  498  -1.694   3.359   1.491  0.3831  0.0796  0.1351
   43HTM   C214  499  -1.577   3.425   1.468  0.3226  0.0870 -0.1470
   43HTM    S22  500  -1.442   3.311   1.431  0.2485  0.0940 -0.4462
   44TAL   C215  501  -1.831   3.422   1.529 -0.2132  0.3082  0.4560
   44TAL   C216  502  -1.902   3.363   1.653  0.5011 -0.1270  0.3529
   44TAL   C217  503  -2.021   3.443   1.715  0.3252  0.1227 -0.1553
   44TAL   C218  504  -1.997   3.583   1.763 -0.2730 -0.3159 -0.3950
   44TAL   C219  505  -2.093   3.635   1.859 -0.3197 -0.3831 -0.2060
   44TAL   C220  506  -2.222   3.711   1.813  0.4658  0.3504  0.2095
   45HTM   C221  507  -1.545   3.567   1.483 -0.1726 -0.0215 -0.2980
   45HTM   C222  508  -1.419   3.621   1.481 -0.1190 -0.1537 -0.4603
   45HTM   C223  509  -1.417   3.765   1.486  0.0362 -0.1523 -0.5533
   45HTM   C224  510  -1.541   3.821   1.491  0.1007 -0.0193 -0.4618
   45HTM    S23  511  -1.671   3.696   1.491 -0.0306  0.1158 -0.2495
   46TAL   C225  512  -1.286   3.843   1.491 -0.6992 -0.5702  0.0693
   46TAL   C226  513  -1.213   3.837   1.621  0.1193 -0.5977  0.0595
   46TAL   C227  514  -1.111   3.944   1.655  0.1875 -0.0119 -0.4762
   46TAL   C228  515  -1.162   4.089   1.665  1.0644 -0.0353  0.6289
   46TAL   C229  516  -1.228   4.134   1.790  0.1078  0.0767 -0.2048
   46TAL   C230  517  -1.161   4.113   1.926 -0.1836 -0.5505 -0.2677
   47HTM   C231  518  -1.587   3.959   1.496  0.2546 -0.1330  0.2194
   47HTM   C232  519  -1.714   4.005   1.479  0.1180 -0.5817  0.0160
   47HTM   C233  520  -1.726   4.148   1.487 -0.3507 -0.5991 -0.3242
   47HTM   C234  521  -1.607   4.212   1.510 -0.5716 -0.1632 -0.3803
   47HTM    S24  522  -1.471   4.095   1.523 -0.2023  0.3060 -0.0048
   48TAL   C235  523  -1.855   4.224   1.475  0.1072  0.1913  0.5961
   48TAL   C236  524  -1.855   4.372   1.478 -0.4471  0.6980 -0.0788
   48TAL   C237  525  -1.985   4.437   1.450  0.4880  0.0481  0.2113
   48TAL   C238  526  -1.965   4.579   1.389 -0.8174 -0.3326  0.2018
   48TAL   C239  527  -2.094   4.642   1.347  0.0995 -0.0979 -0.3007
   48TAL   C240  528  -2.084   4.791   1.324  0.1873  0.2805  0.4626
    1HTM     C1  529   3.343   5.220   5.052  0.1544  0.0404 -0.1875
    1HTM     C2  530   3.456   5.156   5.009  0.3034 -0.1280  0.4368
    1HTM     C3  531   3.447   5.013   5.016  0.2466 -0.1028  0.8757
    1HTM     C4  532   3.328   4.967   5.065  0.0542  0.0848  0.5868
    1HTM     S1  533   3.217   5.103   5.106 -0.0711  0.2453 -0.2695
    2TAL     C5  534   3.568   4.918   4.976  0.1352 -0.3243 -0.0020
    2TAL     C6  535   3.562   4.869   4.831 -0.8357  0.3333  0.5071
    2TAL     C7  536   3.662   4.755   4.812 -0.1735 -0.6771  0.1025
    2TAL     C8  537   3.692   4.729   4.666  0.3034 -0.0688 -0.4274
    2TAL     C9  538   3.806   4.632   4.649  0.4822 -0.0954 -0.2291
    2TAL    C10  539   3.855   4.644   4.510  0.3728  0.0776  0.3080
    3HTM    C11  540   3.269   4.831   5.087  0.1384  0.0305 -0.2173
    3HTM    C12  541   3.333   4.710   5.082  0.1354  0.0365 -0.4125
    3HTM    C13  542   3.248   4.599   5.114  0.2410  0.0281 -0.1569
    3HTM    C14  543   3.119   4.634   5.143  0.3245  0.0160  0.2330
    3HTM     S2  544   3.096   4.813   5.132  0.2759  0.0143  0.3086
    4TAL    C15  545   3.293   4.455   5.102 -0.1582 -0.0374  0.2209
    4TAL    C16  546   3.437   4.410   5.067  0.0308  0.9105  0.2394
    4TAL    C17  547   3.554   4.493   5.127  0.1066 -0.0834 -0.6069
    4TAL    C18  548   3.684   4.423   5.131  0.2263  0.4077  0.0482
    4TAL    C19  549   3.757   4.414   4.994  0.2879  0.1759  0.2695
    4TAL    C20  550   3.889   4.341   5.008 -0.0280 -0.0898  0.2600
    5HTM    C21  551   2.996   4.560   5.165 -0.2021  0.1561  0.2596
    5HTM    C22  552   2.875   4.623   5.165 -0.2017  0.1574  0.1087
    5HTM    C23  553   2.764   4.534   5.186 -0.2309  0.1535 -0.0622
    5HTM    C24  554   2.800   4.404   5.202 -0.2535  0.1500 -0.0416
    5HTM     S3  555   2.979   4.383   5.192 -0.2397  0.1505  0.1968
    6TAL    C25  556   2.624   4.597   5.184 -0.4251 -0.2064 -0.2387
    6TAL    C26  557   2.552   4.634   5.316 -0.3003  0.1541  0.0544
    6TAL    C27  558   2.409   4.681   5.318  0.3922 -1.0280  0.0322
    6TAL    C28  559   2.307   4.635   5.209  0.1399  0.5587  0.0971
    6TAL    C29  560   2.272   4.485   5.220  0.0173  0.1927 -0.0121
    6TAL    C30  561   2.162   4.449   5.119  0.3854  0.1546 -0.2888
    7HTM    C31  562   2.727   4.275   5.221 -0.1446  0.0746  0.1364
    7HTM    C32  563   2.775   4.158   5.274  0.0994  0.0412 -0.1588
    7HTM    C33  564   2.683   4.047   5.262  0.2743 -0.0880 -0.3119
    7HTM    C34  565   2.566   4.079   5.201  0.1639 -0.1531 -0.1332
    7HTM     S4  566   2.561   4.253   5.153 -0.1723 -0.0559  0.2447
    8TAL    C35  567   2.715   3.904   5.301 -0.7102  0.4780  0.8033
    8TAL    C36  568   2.849   3.872   5.356  0.0395 -0.1453  0.4018
    8TAL    C37  569   2.868   3.845   5.506 -0.1897  0.0149  0.0086
    8TAL    C38  570   3.009   3.819   5.546 -0.4716  0.0654 -0.2846
    8TAL    C39  571   3.024   3.772   5.688  0.2462 -0.5827 -0.0626
    8TAL    C40  572   3.161   3.741   5.732 -0.7168  0.0206 -0.1937
    9HTM    C41  573   2.436   4.011   5.179  0.3299 -0.1593 -0.2726
    9HTM    C42  574   2.312   4.066   5.190  0.4020 -0.0811  0.1736
    9HTM    C43  575   2.205   3.976   5.156  0.2137 -0.0559  0.6924
    9HTM    C44  576   2.247   3.852   5.119 -0.0018 -0.1148  0.6418
    9HTM     S5  577   2.427   3.839   5.125  0.0162 -0.2077 -0.0707
   10TAL    C45  578   2.063   4.035   5.182 -0.2753 -0.1140  0.0431
   10TAL    C46  579   1.929   3.975   5.119 -0.4658  0.0711  0.6906
   10TAL    C47  580   1.810   4.067   5.145  0.3883  0.3814  0.1409
   10TAL    C48  581   1.684   4.003   5.106  0.3037 -1.1083  0.2338
   10TAL    C49  582   1.564   4.100   5.129 -0.8253  0.4730 -0.2270
   10TAL    C50  583   1.427   4.042   5.129 -0.0806  0.3570 -0.2582
   11HTM    C51  584   2.172   3.738   5.069  0.2845  0.2715 -0.3601
   11HTM    C52  585   2.128   3.625   5.132  0.8396  0.1457 -0.1991
   11HTM    C53  586   2.041   3.543   5.051  0.9056 -0.1870  0.0639
   11HTM    C54  587   2.018   3.594   4.927  0.4008 -0.3149  0.1032
   11HTM     S6  588   2.105   3.750   4.902 -0.2017 -0.0228 -0.1908
   12TAL    C55  589   1.978   3.422   5.110 -0.3593 -0.0053 -0.4885
   12TAL    C56  590   2.064   3.299   5.150  0.4514 -0.2175  0.4728
   12TAL    C57  591   2.027   3.200   5.260  0.4741 -1.0248 -0.3913
   12TAL    C58  592   2.107   3.078   5.282  0.4734 -0.2664 -0.2652
   12TAL    C59  593   2.253   3.088   5.329  0.1191 -0.5190  0.7679
   12TAL    C60  594   2.336   2.958   5.309 -0.1501  0.3613 -0.9287
   13HTM    C61  595   1.929   3.554   4.821 -0.1491  0.1634 -0.0535
   13HTM    C62  596   1.863   3.436   4.802  0.0375  0.0606 -0.0675
   13HTM    C63  597   1.806   3.422   4.670  0.4076 -0.1880 -0.2003
   13HTM    C64  598   1.830   3.529   4.589  0.5035 -0.2747 -0.2876
   13HTM     S7  599   1.925   3.657   4.673  0.1306 -0.0476 -0.2081
   14TAL    C65  600   1.727   3.301   4.618 -0.2481 -0.0713  0.5830
   14TAL    C66  601   1.609   3.259   4.698 -0.4916 -0.1558 -0.2121
   14TAL    C67  602   1.486   3.355   4.696 -0.3950  0.1149 -0.1797
   14TAL    C68  603   1.422   3.366   4.562 -0.0945 -0.0607 -0.4314
   14TAL    C69  604   1.301   3.465   4.559 -0.2780 -0.3494 -0.0133
   14TAL    C70  605   1.215   3.468   4.444 -0.2018  0.4009  0.3181
   15HTM    C71  606   1.791   3.563   4.453 -0.2974  0.0855 -0.2249
   15HTM    C72  607   1.717   3.488   4.367 -0.4578  0.2518 -0.2344
   15HTM    C73  608   1.676   3.558   4.248 -0.3529  0.3682 -0.2019
   15HTM    C74  609   1.719   3.687   4.243 -0.1126  0.2907 -0.1677
   15HTM     S8  610   1.815   3.731   4.390  0.0005  0.0626 -0.1739
   16TAL    C75  611   1.583   3.488   4.145 -0.0231 -0.0914 -0.2691
   16TAL    C76  612   1.492   3.373   4.187  0.2452 -0.1004 -0.8994
   16TAL    C77  613   1.387   3.325   4.085  0.4513 -0.5149  0.7409
   16TAL    C78  614   1.262   3.252   4.150  0.3313 -0.7655  0.4555
   16TAL    C79  615   1.290   3.144   4.256 -0.2131  0.0923  0.4043
   16TAL    C80  616   1.178   3.095   4.337 -0.8519  0.2086 -0.0557
   17HTM    C81  617   1.701   3.794   4.142  0.3745 -0.1148  0.7392
   17HTM    C82  618   1.689   3.789   4.006  1.3912 -0.6696  0.6618
   17HTM    C83  619   1.683   3.919   3.944  1.3220 -0.9222  0.1380
   17HTM    C84  620   1.690   4.022   4.032  0.2528 -0.5596 -0.1836
   17HTM     S9  621   1.705   3.964   4.202 -0.7577  0.1336  0.1524
   18TAL    C85  622   1.683   3.935   3.796  0.0641 -0.2867  0.8375
   18TAL    C86  623   1.804   3.976   3.724 -1.1461 -0.4281 -0.4731
   18TAL    C87  624   1.943   3.907   3.738  0.1441  0.3103  0.2976
   18TAL    C88  625   1.945   3.759   3.731 -0.3339 -0.0640 -1.0525
   18TAL    C89  626   2.089   3.710   3.724  0.2251 -0.1647 -0.1925
   18TAL    C90  627   2.085   3.564   3.681  0.4681 -0.4115  0.2124
   19HTM    C91  628   1.698   4.166   4.011  0.0992 -0.1239  0.0145
   19HTM    C92  629   1.611   4.265   4.045 -0.0844 -0.2730 -0.0260
   19HTM    C93  630   1.659   4.398   4.017 -0.2987 -0.1905 -0.0072
   19HTM    C94  631   1.784   4.400   3.962 -0.2785  0.0211  0.0473
   19HTM    S10  632   1.850   4.234   3.941  0.0151  0.1342  0.0798
   20TAL    C95  633   1.582   4.530   4.055  0.1985  0.3559 -0.5869
   20TAL    C96  634   1.438   4.542   4.009 -0.3535 -0.6009  0.3232
   20TAL    C97  635   1.392   4.689   4.021 -0.1834 -0.2252 -0.0747
   20TAL    C98  636   1.255   4.722   3.968  0.5629 -0.0327 -0.3278
   20TAL    C99  637   1.211   4.869   3.971 -0.4198 -0.0196 -0.2529
   20TAL   C100  638   1.074   4.903   3.917 -0.0424  0.1998  0.5575
   21HTM   C101  639   1.864   4.507   3.919 -0.1133 -0.2887  0.0023
   21HTM   C102  640   1.825   4.626   3.866 -0.4269 -0.0710  0.7068
   21HTM   C103  641   1.933   4.719   3.847 -0.6167  0.1948  0.9314
   21HTM   C104  642   2.055   4.671   3.887 -0.4480  0.1798  0.3980
   21HTM    S11  643   2.042   4.503   3.950 -0.0328 -0.1736 -0.4356
   22TAL   C105  644   1.894   4.857   3.792 -0.2246  0.4290  0.3223
   22TAL   C106  645   1.748   4.909   3.777 -0.3803 -1.1513 -0.1752
   22TAL   C107  646   1.687   4.971   3.909  0.3104 -0.1276  0.9931
   22TAL   C108  647   1.549   5.022   3.873  0.3655  0.2474 -0.1366
   22TAL   C109  648   1.482   5.108   3.982 -0.4722 -0.1215 -0.6978
   22TAL   C110  649   1.364   5.175   3.920 -0.2084  0.0802  0.6917
   23HTM   C111  650   2.184   4.740   3.900 -0.4684 -0.4778  0.2167
   23HTM   C112  651   2.303   4.687   3.942 -0.4234 -0.8264 -0.3388
   23HTM   C113  652   2.406   4.785   3.965 -0.1286 -1.0967 -0.4929
   23HTM   C114  653   2.366   4.913   3.941  0.0510 -0.9547 -0.0549
   23HTM    S12  654   2.194   4.920   3.886 -0.1395 -0.4645  0.5911
   24TAL   C115  655   2.549   4.742   3.991 -0.2268  0.4432 -0.3878
   24TAL   C116  656   2.586   4.593   3.993 -0.4821 -0.0709  0.0014
   24TAL   C117  657   2.712   4.538   4.070 -0.6964  0.4867 -0.3867
   24TAL   C118  658   2.835   4.624   4.080  0.2770 -0.1587 -0.0703
   24TAL   C119  659   2.944   4.556   4.170 -0.0522  0.1924 -0.1541
   24TAL   C120  660   3.068   4.633   4.185  0.0100  0.6067 -0.2940
   25HTM   C121  661   2.435   5.045   3.960  0.0227  0.2545  0.2832
   25HTM   C122  662   2.396   5.170   3.923  0.2638  0.2420 -0.0180
   25HTM   C123  663   2.489   5.273   3.958  0.5946  0.1183 -0.5144
   25HTM   C124  664   2.600   5.227   4.023  0.6057  0.0366 -0.5917
   25HTM    S13  665   2.595   5.048   4.044  0.1960  0.1099 -0.0392
   26TAL   C125  666   2.473   5.416   3.910  0.6055 -0.5262 -0.0031
   26TAL   C126  667   2.338   5.480   3.877  0.0558  0.3052 -0.2144
   26TAL   C127  668   2.343   5.623   3.835  0.0187  0.2797 -0.4931
   26TAL   C128  669   2.201   5.683   3.833 -0.0973 -0.0152  0.2686
   26TAL   C129  670   2.183   5.824   3.765 -0.4580 -0.3778 -0.2208
   26TAL   C130  671   2.202   5.933   3.862 -0.1185 -0.6843 -0.7329
   27HTM   C131  672   2.715   5.293   4.087 -0.0046  0.0711  0.0590
   27HTM   C132  673   2.830   5.231   4.126 -0.2245  0.0145  0.6278
   27HTM   C133  674   2.937   5.321   4.160 -0.1960 -0.0422  0.6893
   27HTM   C134  675   2.903   5.453   4.148  0.0455 -0.0290  0.1667
   27HTM    S14  676   2.733   5.473   4.091  0.2573  0.0572 -0.4475
   28TAL   C135  677   3.076   5.270   4.198 -0.0378 -0.0949  0.3181
   28TAL   C136  678   3.126   5.135   4.148  0.2383 -0.4510  0.0033
   28TAL   C137  679   3.271   5.111   4.181 -0.6722  0.0437 -0.5729
   28TAL   C138  680   3.368   5.196   4.109 -0.3645  0.2647 -0.4952
   28TAL   C139  681   3.514   5.178   4.144  0.0901 -0.2456 -0.5273
   28TAL   C140  682   3.591   5.290   4.073  0.6087  0.4309  0.5537
   29HTM   C141  683   2.986   5.572   4.148 -0.0252  0.0612 -0.0303
   29HTM   C142  684   3.104   5.580   4.080 -0.0551 -0.0677 -0.0975
   29HTM   C143  685   3.152   5.715   4.063  0.0266 -0.1125 -0.2227
   29HTM   C144  686   3.071   5.809   4.119  0.1188 -0.0170 -0.2503
   29HTM    S15  687   2.926   5.735   4.196  0.1096  0.1374 -0.1199
   30TAL   C145  688   3.285   5.746   3.991 -0.2012  0.1193 -0.2618
   30TAL   C146  689   3.417   5.667   4.018  0.5951 -0.3068 -0.4139
   30TAL   C147  690   3.538   5.746   3.985 -0.6841 -0.2095 -0.6176
   30TAL   C148  691   3.559   5.869   4.074  0.6166  0.0351  0.2980
   30TAL   C149  692   3.675   5.956   4.039  0.7741  0.3975 -0.7997
   30TAL   C150  693   3.670   6.074   4.131  0.3452  0.3021  0.4093
   31HTM   C151  694   3.069   5.956   4.108  0.6006 -0.3016 -0.0098
   31HTM   C152  695   2.960   6.038   4.104  0.5431 -0.3650  0.2661
   31HTM   C153  696   2.992   6.177   4.085  0.4288 -0.3111  0.4547
   31HTM   C154  697   3.126   6.201   4.073  0.3989 -0.2072  0.3225
   31HTM    S16  698   3.222   6.049   4.087  0.5140 -0.1684 -0.0530
   32TAL   C155  699   2.883   6.291   4.081  0.4832  0.0564 -0.0097
   32TAL   C156  700   2.791   6.290   4.204  0.2006 -0.1555 -0.2274
   32TAL   C157  701   2.702   6.421   4.209 -0.1134  0.0820  0.4893
   32TAL   C158  702   2.777   6.554   4.249  0.4958  0.1605 -0.2112
   32TAL   C159  703   2.689   6.685   4.249  0.0103 -0.0323 -0.5568
   32TAL   C160  704   2.572   6.698   4.346  0.5897  0.0551  0.3522
   33HTM   C161  705   3.197   6.324   4.057  0.5395  0.0412  0.4260
   33HTM   C162  706   3.322   6.337   4.003  0.7026 -0.0043  0.7873
   33HTM   C163  707   3.377   6.469   4.016  0.5134  0.1009  0.5221
   33HTM   C164  708   3.295   6.558   4.079  0.2060  0.2261 -0.0412
   33HTM    S17  709   3.140   6.480   4.129  0.1310  0.2212 -0.2826
   34TAL   C165  710   3.525   6.506   3.980 -0.7164  0.4052  0.0428
   34TAL   C166  711   3.595   6.398   3.895  0.3354 -0.2344 -0.3348
   34TAL   C167  712   3.718   6.446   3.818  0.1424  0.2195  0.2606
   34TAL   C168  713   3.794   6.319   3.771 -0.0886  0.1651  0.2121
   34TAL   C169  714   3.927   6.328   3.711 -0.8561 -0.1239 -0.0328
   34TAL   C170  715   4.031   6.415   3.792 -0.0537  0.1909  0.2408
   35HTM   C171  716   3.314   6.693   4.127 -0.1672 -0.1068 -0.3528
   35HTM   C172  717   3.418   6.777   4.107  0.1289 -0.3972 -0.0494
   35HTM   C173  718   3.409   6.900   4.181  0.3558 -0.4542  0.0763
   35HTM   C174  719   3.296   6.910   4.257  0.2329 -0.2069 -0.1316
   35HTM    S18  720   3.193   6.762   4.242 -0.1823  0.1194 -0.5049
   36TAL   C175  721   3.529   7.000   4.187 -0.1645  0.2110  0.1252
   36TAL   C176  722   3.633   6.973   4.291 -0.0029 -0.9961 -0.0655
   36TAL   C177  723   3.739   7.084   4.314 -0.1330 -0.4130 -0.2053
   36TAL   C178  724   3.696   7.220   4.374  0.2468 -0.4217 -0.4474
   36TAL   C179  725   3.814   7.286   4.445  0.2478 -1.0093  0.6869
   36TAL   C180  726   3.777   7.405   4.538 -0.1194 -0.5913  0.3860
   37HTM   C181  727   3.247   7.015   4.349  0.4721 -0.2452 -0.1249
   37HTM   C182  728   3.201   6.990   4.475  0.2483 -0.4652 -0.2508
   37HTM   C183  729   3.181   7.108   4.554 -0.3031 -0.5748 -0.2227
   37HTM   C184  730   3.212   7.224   4.489 -0.4998 -0.4384 -0.0752
   37HTM    S19  731   3.269   7.192   4.321 -0.0002 -0.1586  0.0404
   38TAL   C185  732   3.130   7.094   4.697 -0.0831 -0.3396  0.1301
   38TAL   C186  733   3.063   6.956   4.741 -0.3219  0.1240 -1.0907
   38TAL   C187  734   2.943   6.906   4.664 -0.3109  0.0068 -0.2224
   38TAL   C188  735   2.932   6.758   4.696  0.7555 -0.2716 -0.6689
   38TAL   C189  736   2.817   6.694   4.626 -0.0400  0.2574  0.9433
   38TAL   C190  737   2.804   6.539   4.627  0.4382  0.4683 -0.4145
   39HTM   C191  738   3.230   7.363   4.542  0.1010  0.1676  0.1396
   39HTM   C192  739   3.141   7.438   4.613  0.1358  0.2410  0.1059
   39HTM   C193  740   3.184   7.573   4.636  0.1874  0.2387  0.0219
   39HTM   C194  741   3.306   7.602   4.582  0.1919  0.1631 -0.0079
   39HTM    S20  742   3.376   7.458   4.498  0.1308  0.0887  0.0676
   40TAL   C195  743   3.097   7.677   4.711 -0.5194 -0.4135 -0.3355
   40TAL   C196  744   2.948   7.679   4.687 -0.0160 -0.2203  0.0771
   40TAL   C197  745   2.902   7.747   4.555 -0.3984 -0.3082 -0.0702
   40TAL   C198  746   2.755   7.745   4.548 -0.5246 -0.0999 -0.0541
   40TAL   C199  747   2.707   7.880   4.606 -0.5708  0.1972 -0.2404
   40TAL   C200  748   2.581   7.852   4.693  0.3127 -0.1171 -0.1457
   41HTM   C201  749   3.398   7.708   4.595 -0.2842 -0.0935  0.0046
   41HTM   C202  750   3.534   7.704   4.606 -0.2830 -0.2928 -0.0792
   41HTM   C203  751   3.595   7.833   4.623 -0.0665 -0.3622 -0.3111
   41HTM   C204  752   3.505   7.936   4.626  0.0974 -0.2158 -0.4037
   41HTM    S21  753   3.336   7.876   4.607 -0.0097  0.0226 -0.2041
   42TAL   C205  754   3.746   7.848   4.636  0.1475  0.4369 -0.0234
   42TAL   C206  755   3.823   7.731   4.703 -0.6714 -0.0813 -0.2406
   42TAL   C207  756   3.977   7.731   4.724  0.7830 -1.0159 -0.1392
   42TAL   C208  757   4.035   7.861   4.793  0.7812  0.1572 -0.2899
   42TAL   C209  758   4.174   7.836   4.847 -0.4306 -0.5155 -0.0118
   42TAL   C210  759   4.233   7.954   4.911 -0.2363 -0.2627  0.3687
   43HTM   C211  760   3.525   8.078   4.654 -0.0198 -0.1409  0.5721
   43HTM   C212  761   3.440   8.162   4.719  0.0656  0.1612  0.2944
   43HTM   C213  762   3.493   8.296   4.735  0.1092  0.2189 -0.3340
   43HTM   C214  763   3.617   8.312   4.681  0.0571 -0.0387 -0.5353
   43HTM    S22  764   3.678   8.160   4.606 -0.0521 -0.3761  0.0576
   44TAL   C215  765   3.396   8.402   4.783 -0.1993  0.1959  0.2675
   44TAL   C216  766   3.356   8.411   4.926 -0.5638 -0.0387 -0.0655
   44TAL   C217  767   3.461   8.434   5.030 -1.1454  0.1736  0.5540
   44TAL   C218  768   3.523   8.573   5.031  0.3082  0.4295  0.0766
   44TAL   C219  769   3.622   8.611   5.136 -0.3726  0.1027  0.0946
   44TAL   C220  770   3.755   8.529   5.137 -0.1172  0.1522  0.2922
   45HTM   C221  771   3.707   8.428   4.671 -0.3654  0.0410  0.3076
   45HTM   C222  772   3.832   8.422   4.618 -0.4267 -0.1040  0.1774
   45HTM   C223  773   3.902   8.548   4.619 -0.3351 -0.1521 -0.0286
   45HTM   C224  774   3.829   8.650   4.673 -0.2039 -0.0446 -0.0556
   45HTM    S23  775   3.666   8.594   4.727 -0.1859  0.1279  0.1790
   46TAL   C225  776   4.044   8.553   4.579 -0.4391  0.5482 -0.3717
   46TAL   C226  777   4.094   8.675   4.502 -0.2777 -0.3715 -0.1311
   46TAL   C227  778   4.227   8.664   4.435 -0.0119  0.4481 -0.0653
   46TAL   C228  779   4.258   8.793   4.361 -0.2375 -0.0595 -0.2233
   46TAL   C229  780   4.392   8.808   4.297 -0.3548 -0.4483  0.5800
   46TAL   C230  781   4.408   8.931   4.211 -0.2987 -0.1330 -0.7015
   47HTM   C231  782   3.864   8.783   4.714 -0.0223 -0.1679 -0.0982
   47HTM   C232  783   3.833   8.901   4.652 -0.5883 -0.1717  0.1662
   47HTM   C233  784   3.883   9.017   4.721 -0.8943 -0.1044  0.2737
   47HTM   C234  785   3.951   8.989   4.836 -0.5614 -0.0502  0.0911
   47HTM    S24  786   3.958   8.811   4.866  0.1698 -0.0791 -0.2332
   48TAL   C235  787   3.850   9.156   4.667  0.1144 -0.5142  0.7234
   48TAL   C236  788   3.875   9.272   4.763  0.3340 -0.2603  0.0648
   48TAL   C237  789   3.837   9.412   4.705 -0.0005 -0.4970  0.0083
   48TAL   C238  790   3.936   9.466   4.603 -0.1980  0.2113 -0.1516
   48TAL   C239  791   3.901   9.604   4.556  0.4670  0.1956 -0.0039
   48TAL   C240  792   4.004   9.667   4.476  0.6238  0.4183 -0.0599
    1HTM     C1  793   1.903   4.827   2.547  0.2965  0.2945 -0.2750
    1HTM     C2  794   2.008   4.869   2.624  0.4069  0.3424 -0.4510
    1HTM     C3  795   2.014   5.011   2.642  0.1649  0.3157 -0.1620
    1HTM     C4  796   1.913   5.079   2.580 -0.1300  0.2474  0.2343
    1HTM     S1  797   1.802   4.967   2.492 -0.1249  0.2117  0.2734
    2TAL     C5  798   2.118   5.080   2.723 -0.0518  0.1481 -0.6951
    2TAL     C6  799   2.254   5.013   2.749 -0.5073 -0.6444  0.0472
    2TAL     C7  800   2.369   5.097   2.815  0.1352 -0.8481  0.6640
    2TAL     C8  801   2.388   5.239   2.766 -0.1944 -0.3692  0.3124
    2TAL     C9  802   2.295   5.344   2.819  1.1264  0.6798 -0.2258
    2TAL    C10  803   2.322   5.496   2.794 -0.3691  0.0958  0.0565
    3HTM    C11  804   1.870   5.217   2.578 -0.1625  0.2069  0.4924
    3HTM    C12  805   1.741   5.259   2.569 -0.1475  0.1826  0.1281
    3HTM    C13  806   1.724   5.401   2.587 -0.1822  0.2375 -0.3240
    3HTM    C14  807   1.841   5.467   2.610 -0.2237  0.3041 -0.3043
    3HTM     S2  808   1.982   5.355   2.610 -0.2221  0.3025  0.2913
    4TAL    C15  809   1.576   5.452   2.607  0.8011 -0.2708  0.2766
    4TAL    C16  810   1.506   5.456   2.746  0.6250  0.0021 -0.1995
    4TAL    C17  811   1.469   5.317   2.802  0.4689 -0.0556  0.4967
    4TAL    C18  812   1.321   5.286   2.806  0.3726  0.5249  0.2614
    4TAL    C19  813   1.283   5.138   2.831 -0.0883 -0.4421 -0.1714
    4TAL    C20  814   1.332   5.031   2.729  0.4464 -0.4858 -0.8511
    5HTM    C21  815   1.866   5.610   2.638 -0.1158  0.1784  0.2320
    5HTM    C22  816   1.795   5.719   2.596 -0.0796  0.1588  0.1204
    5HTM    C23  817   1.849   5.844   2.641  0.0353  0.1934 -0.1149
    5HTM    C24  818   1.961   5.832   2.717  0.0869  0.2399 -0.1828
    5HTM     S3  819   2.008   5.659   2.739 -0.0063  0.2432  0.0470
    6TAL    C25  820   1.781   5.970   2.592  0.1879  0.5492  0.0602
    6TAL    C26  821   1.634   5.980   2.635 -0.7706 -0.2580  0.0132
    6TAL    C27  822   1.576   6.110   2.579  0.0070  0.1260 -0.1930
    6TAL    C28  823   1.425   6.128   2.608  0.1661 -0.2595 -0.0715
    6TAL    C29  824   1.343   6.088   2.484 -0.5861  0.4870  0.4001
    6TAL    C30  825   1.206   6.043   2.515 -0.0813  0.5561 -0.2804
    7HTM    C31  826   2.039   5.937   2.777 -0.1566 -0.0919  0.1281
    7HTM    C32  827   2.022   6.072   2.792  0.0716  0.0055 -0.4417
    7HTM    C33  828   2.131   6.137   2.860  0.3043  0.1519 -0.9571
    7HTM    C34  829   2.232   6.052   2.895  0.2535  0.1657 -0.7802
    7HTM     S4  830   2.196   5.882   2.847 -0.0949 -0.0058  0.0572
    8TAL    C35  831   2.119   6.283   2.889 -0.3202 -0.5047  0.3886
    8TAL    C36  832   2.127   6.385   2.770  0.3247  0.1932  0.4718
    8TAL    C37  833   2.129   6.536   2.793 -0.1506 -0.5525 -0.1990
    8TAL    C38  834   2.265   6.587   2.858  0.1776 -0.1037  0.0355
    8TAL    C39  835   2.274   6.737   2.871  0.4305 -0.0448  0.1828
    8TAL    C40  836   2.401   6.774   2.950  0.0705  0.4879 -0.0167
    9HTM    C41  837   2.364   6.074   2.960  0.3012 -0.1386 -0.1727
    9HTM    C42  838   2.476   5.995   2.962  0.2464 -0.2086  0.1726
    9HTM    C43  839   2.588   6.055   3.031  0.0719 -0.2811  0.5238
    9HTM    C44  840   2.562   6.179   3.081 -0.0068 -0.2665  0.4466
    9HTM     S5  841   2.392   6.230   3.045  0.1349 -0.1585 -0.0803
   10TAL    C45  842   2.713   5.976   3.061  0.1332  0.2152 -0.1977
   10TAL    C46  843   2.729   5.827   3.027 -0.1162  0.1759 -0.6262
   10TAL    C47  844   2.622   5.731   3.086 -0.0069 -0.3471  0.9585
   10TAL    C48  845   2.651   5.590   3.035  0.4701  0.5216 -0.6725
   10TAL    C49  846   2.550   5.501   3.108  0.0435  0.6283  0.4821
   10TAL    C50  847   2.573   5.355   3.075 -0.0302 -0.1568  0.0433
   11HTM    C51  848   2.643   6.272   3.157  0.1177  0.0570  0.7684
   11HTM    C52  849   2.610   6.339   3.271  0.3009  0.7582  0.4131
   11HTM    C53  850   2.720   6.414   3.327  0.4339  0.9840 -0.1359
   11HTM    C54  851   2.836   6.404   3.257  0.3520  0.4556 -0.1990
   11HTM     S6  852   2.816   6.298   3.112  0.0983 -0.3755  0.4347
   12TAL    C55  853   2.696   6.487   3.455  0.0191  0.2774 -0.0857
   12TAL    C56  854   2.658   6.635   3.441  0.3082 -0.1786 -0.4586
   12TAL    C57  855   2.546   6.676   3.346 -0.5999  0.4325  0.0788
   12TAL    C58  856   2.409   6.615   3.389  0.2072  0.6401 -0.4132
   12TAL    C59  857   2.307   6.595   3.276  0.2534 -0.2830  0.0542
   12TAL    C60  858   2.183   6.522   3.329 -0.7161  0.3603  0.3257
   13HTM    C61  859   2.967   6.458   3.274  0.0784 -0.6308 -0.2795
   13HTM    C62  860   3.028   6.554   3.200  0.1121 -0.8228 -0.5039
   13HTM    C63  861   3.162   6.585   3.245  0.0212 -0.5717 -0.4065
   13HTM    C64  862   3.201   6.512   3.353 -0.0816 -0.1881 -0.1077
   13HTM     S7  863   3.073   6.398   3.407 -0.0717 -0.1142  0.0751
   14TAL    C65  864   3.243   6.683   3.165 -0.4445 -0.2142  0.0116
   14TAL    C66  865   3.276   6.815   3.225 -0.2304  0.6990  0.0618
   14TAL    C67  866   3.356   6.907   3.135 -0.1713  0.3746  1.1121
   14TAL    C68  867   3.453   7.002   3.192  0.3398  0.2691  0.1893
   14TAL    C69  868   3.581   6.949   3.253  0.7103 -0.0816  0.0236
   14TAL    C70  869   3.659   7.049   3.333 -0.7093 -0.1139  0.6312
   15HTM    C71  870   3.325   6.547   3.434 -0.0412  0.3458  0.1186
   15HTM    C72  871   3.331   6.615   3.552  0.3799  0.0675  0.2607
   15HTM    C73  872   3.465   6.653   3.590  0.5765 -0.5188  0.1595
   15HTM    C74  873   3.561   6.613   3.501  0.3050 -0.6868 -0.0596
   15HTM     S8  874   3.489   6.524   3.362 -0.2238 -0.1143 -0.1561
   16TAL    C75  875   3.485   6.736   3.718  0.0511  0.3916 -0.0466
   16TAL    C76  876   3.419   6.871   3.749  0.0594 -0.0109  0.1870
   16TAL    C77  877   3.414   6.989   3.649 -0.3612  0.3117 -0.1820
   16TAL    C78  878   3.293   6.996   3.553 -0.3442  0.7122 -1.1250
   16TAL    C79  879   3.161   6.986   3.620 -0.4566  0.1294 -0.2135
   16TAL    C80  880   3.044   6.964   3.531 -0.6802  0.6827 -0.4579
   17HTM    C81  881   3.702   6.637   3.496  0.0215 -0.1934  0.2045
   17HTM    C82  882   3.791   6.585   3.406  0.1905  0.0541  0.2283
   17HTM    C83  883   3.927   6.629   3.427  0.1110  0.1991  0.4461
   17HTM    C84  884   3.942   6.713   3.533 -0.1186  0.0621  0.5883
   17HTM     S9  885   3.784   6.745   3.615 -0.2530 -0.2637  0.4572
   18TAL    C85  886   4.034   6.571   3.336 -1.0659 -0.1653  0.1422
   18TAL    C86  887   4.108   6.455   3.399  0.1959 -0.1252  0.1340
   18TAL    C87  888   4.228   6.422   3.313  0.2020  0.2349 -0.1492
   18TAL    C88  889   4.351   6.390   3.403  0.3241  0.7283  0.4509
   18TAL    C89  890   4.487   6.386   3.333  0.4372  0.3227 -0.0939
   18TAL    C90  891   4.598   6.396   3.438 -0.2241  0.3572  0.2336
   19HTM    C91  892   4.050   6.798   3.575 -0.2143 -0.0861  0.3757
   19HTM    C92  893   4.048   6.902   3.664 -0.0818  0.0145  0.2614
   19HTM    C93  894   4.176   6.963   3.684 -0.0484  0.0269  0.0116
   19HTM    C94  895   4.276   6.907   3.610 -0.1558 -0.0644 -0.0648
   19HTM    S10  896   4.216   6.770   3.510 -0.3087 -0.1740  0.1747
   20TAL    C95  897   4.201   7.069   3.790  0.1975  0.1820 -0.9833
   20TAL    C96  898   4.184   7.219   3.742  0.2754 -0.5631 -0.1662
   20TAL    C97  899   4.239   7.313   3.844 -0.0480 -0.8963 -0.9803
   20TAL    C98  900   4.147   7.425   3.874  0.0066 -0.2320  0.6441
   20TAL    C99  901   4.189   7.511   3.985  0.1833 -0.5334 -0.2803
   20TAL   C100  902   4.228   7.653   3.957 -0.6228 -0.0589 -0.2873
   21HTM   C101  903   4.420   6.938   3.601  0.1801  0.1899 -0.4348
   21HTM   C102  904   4.477   7.061   3.605  0.2458  0.1497 -0.0465
   21HTM   C103  905   4.621   7.059   3.595  0.2794  0.0765  0.4474
   21HTM   C104  906   4.673   6.933   3.584  0.2398  0.0606  0.4357
   21HTM    S11  907   4.543   6.808   3.585  0.1555  0.1380 -0.2048
   22TAL   C105  908   4.702   7.184   3.592 -0.0785 -0.2234 -0.8828
   22TAL   C106  909   4.637   7.321   3.600  0.5370  0.2221  0.3381
   22TAL   C107  910   4.722   7.450   3.628 -0.1277 -0.0306  0.2224
   22TAL   C108  911   4.655   7.587   3.605 -0.4310 -0.6533  0.5264
   22TAL   C109  912   4.509   7.597   3.655 -0.1510 -0.5032 -0.4753
   22TAL   C110  913   4.431   7.712   3.601 -0.1427  0.4923  0.8375
   23HTM   C111  914   4.809   6.885   3.573  0.0467  0.4393  0.2058
   23HTM   C112  915   4.923   6.956   3.601  0.0892  0.3741  0.1984
   23HTM   C113  916   5.044   6.882   3.577  0.0420  0.2444  0.3544
   23HTM   C114  917   5.023   6.756   3.531 -0.0361  0.2107  0.4806
   23HTM    S12  918   4.847   6.719   3.514 -0.0564  0.3412  0.4119
   24TAL   C115  919   5.183   6.927   3.599 -0.1469  0.6307 -0.6538
   24TAL   C116  920   5.220   7.075   3.630  0.1461  0.3643  0.4625
   24TAL   C117  921   5.123   7.191   3.597  0.0734  0.0194 -0.2268
   24TAL   C118  922   5.164   7.327   3.647  0.7656  0.0528 -0.2549
   24TAL   C119  923   5.081   7.441   3.595 -0.5205  0.2291 -0.0993
   24TAL   C120  924   5.104   7.575   3.653 -0.5625 -0.0128 -0.1608
   25HTM   C121  925   5.114   6.643   3.510  0.0111 -0.6327  0.0659
   25HTM   C122  926   5.102   6.523   3.574  0.0627 -0.8912 -0.3996
   25HTM   C123  927   5.214   6.434   3.553  0.1967 -0.6802 -0.5821
   25HTM   C124  928   5.310   6.486   3.472  0.2475 -0.2611 -0.2558
   25HTM    S13  929   5.268   6.652   3.416  0.1287 -0.0989  0.3117
   26TAL   C125  930   5.200   6.291   3.602 -0.0184 -0.4085 -0.5053
   26TAL   C126  931   5.162   6.174   3.515  0.2079  0.3227 -0.0154
   26TAL   C127  932   5.026   6.178   3.446 -0.0100  0.0394  0.3452
   26TAL   C128  933   4.963   6.044   3.399 -1.0993 -0.8980  0.1546
   26TAL   C129  934   4.820   6.062   3.349  0.2797 -0.3359  0.3513
   26TAL   C130  935   4.767   5.925   3.309  0.1267 -0.7858 -0.5226
   27HTM   C131  936   5.438   6.432   3.420 -0.1674  0.3172  0.2182
   27HTM   C132  937   5.475   6.310   3.374 -0.3564  0.4475 -0.2810
   27HTM   C133  938   5.610   6.304   3.325 -0.4790  0.5250 -0.6353
   27HTM   C134  939   5.677   6.423   3.334 -0.3837  0.4537 -0.4060
   27HTM    S14  940   5.573   6.552   3.406 -0.1297  0.2822  0.2801
   28TAL   C135  941   5.676   6.176   3.287  0.2275 -0.3020  0.3357
   28TAL   C136  942   5.665   6.063   3.381  0.2020 -0.1696  0.1986
   28TAL   C137  943   5.761   5.949   3.351  0.8626  0.0784 -0.7097
   28TAL   C138  944   5.904   5.977   3.379  0.0140  0.1671 -0.2002
   28TAL   C139  945   5.979   5.850   3.396  0.7576 -0.4284  0.0414
   28TAL   C140  946   6.122   5.874   3.438 -0.1064  0.0597  0.3065
   29HTM   C141  947   5.818   6.455   3.302  0.2002 -0.3050 -0.1187
   29HTM   C142  948   5.926   6.374   3.281  0.3431 -0.2000  0.2085
   29HTM   C143  949   6.049   6.447   3.258  0.3340 -0.0811  0.5289
   29HTM   C144  950   6.034   6.582   3.261  0.1841 -0.0956  0.4462
   29HTM    S15  951   5.863   6.629   3.294  0.0422 -0.2615 -0.0470
   30TAL   C145  952   6.180   6.386   3.232 -0.0145  0.4747  0.3397
   30TAL   C146  953   6.185   6.229   3.242 -0.0350 -0.2476  0.9048
   30TAL   C147  954   6.314   6.155   3.254  0.4440 -0.9123 -0.4212
   30TAL   C148  955   6.432   6.194   3.169  0.4643 -0.1467 -0.4680
   30TAL   C149  956   6.439   6.191   3.017 -0.4655 -0.2178 -0.5276
   30TAL   C150  957   6.345   6.258   2.917  1.2611  0.1101 -0.2591
   31HTM   C151  958   6.126   6.691   3.250 -0.1518  0.1342  0.9914
   31HTM   C152  959   6.111   6.802   3.172 -0.8407  0.1559  1.1456
   31HTM   C153  960   6.222   6.893   3.181 -0.9098  0.3119  0.4399
   31HTM   C154  961   6.321   6.852   3.265 -0.2735  0.4090 -0.2527
   31HTM    S16  962   6.282   6.693   3.340  0.4680  0.3102 -0.0655
   32TAL   C155  963   6.243   7.014   3.089  0.0338  0.6367  0.6188
   32TAL   C156  964   6.121   7.107   3.052 -0.6018  0.3556  0.0498
   32TAL   C157  965   6.072   7.185   3.180 -0.4713 -0.6068 -0.3979
   32TAL   C158  966   5.945   7.271   3.151  0.0103 -0.1926  0.6765
   32TAL   C159  967   5.900   7.326   3.280  0.0122  0.0320 -0.6039
   32TAL   C160  968   5.961   7.450   3.336 -0.1485 -0.2100  0.2811
   33HTM   C161  969   6.445   6.915   3.310  0.1395 -0.0152  0.0782
   33HTM   C162  970   6.561   6.854   3.349  0.1893  0.1609  0.2041
   33HTM   C163  971   6.667   6.946   3.380 -0.0262  0.3293  0.4525
   33HTM   C164  972   6.633   7.077   3.364 -0.2409  0.2815  0.5161
   33HTM    S17  973   6.462   7.094   3.308 -0.1863  0.0184  0.2649
   34TAL   C165  974   6.797   6.884   3.424  0.4470 -0.6015 -0.1325
   34TAL   C166  975   6.883   6.840   3.306 -0.2367 -0.2968  0.0149
   34TAL   C167  976   7.010   6.769   3.351 -0.4022  0.2935  0.1861
   34TAL   C168  977   7.119   6.824   3.449  0.0713  0.0540 -0.1391
   34TAL   C169  978   7.178   6.949   3.384  0.6356 -0.3647  0.5689
   34TAL   C170  979   7.281   7.010   3.479  0.5623  0.4531 -0.0776
   35HTM   C171  980   6.706   7.198   3.391  0.0155 -0.6923  0.4697
   35HTM   C172  981   6.656   7.325   3.383 -0.2015 -0.7722  0.5376
   35HTM   C173  982   6.757   7.427   3.392 -0.3588 -0.6073  0.4286
   35HTM   C174  983   6.884   7.378   3.406 -0.2615 -0.4014  0.2773
   35HTM    S18  984   6.885   7.198   3.410  0.0381 -0.4000  0.2608
   36TAL   C175  985   6.722   7.576   3.391  0.1121 -0.4414  0.7481
   36TAL   C176  986   6.687   7.621   3.536 -0.2792 -0.3851  0.6263
   36TAL   C177  987   6.681   7.775   3.549 -0.1442  0.2063 -0.1378
   36TAL   C178  988   6.564   7.834   3.628 -0.1229  0.0740  0.1939
   36TAL   C179  989   6.574   7.986   3.659  0.0763 -0.1779 -0.4980
   36TAL   C180  990   6.440   8.037   3.700 -0.0155 -0.2257 -0.2677
   37HTM   C181  991   7.013   7.452   3.424 -0.2924  0.1231 -0.1811
   37HTM   C182  992   7.137   7.397   3.417 -0.3898 -0.0613 -0.5082
   37HTM   C183  993   7.244   7.491   3.437 -0.2055 -0.2720 -0.4859
   37HTM   C184  994   7.200   7.619   3.459  0.0327 -0.2485 -0.1417
   37HTM    S19  995   7.020   7.629   3.456  0.0429  0.0444  0.1834
   38TAL   C185  996   7.385   7.446   3.458 -0.5729 -0.4467  0.3887
   38TAL   C186  997   7.446   7.357   3.350  0.6122 -0.0404 -0.3845
   38TAL   C187  998   7.595   7.339   3.375  0.2908  0.3171  0.1055
   38TAL   C188  999   7.651   7.229   3.286 -0.4740 -0.0445  0.3432
   38TAL   C189 1000   7.587   7.091   3.302 -0.0906  0.2466  0.6851
   38TAL   C190 1001   7.664   6.981   3.224 -0.2527  0.1150 -0.3424
   39HTM   C191 1002   7.264   7.751   3.476 -0.3278  0.2047 -0.4155
   39HTM   C192 1003   7.204   7.864   3.524 -0.3300  0.1335 -0.2501
   39HTM   C193 1004   7.293   7.977   3.533 -0.2723  0.0589  0.1392
   39HTM   C194 1005   7.420   7.950   3.491 -0.2260  0.0732  0.2709
   39HTM    S20 1006   7.438   7.779   3.438 -0.2525  0.1827 -0.0896
   40TAL   C195 1007   7.239   8.106   3.594  0.4783  0.3315 -0.0090
   40TAL   C196 1008   7.163   8.208   3.504  0.1268 -0.2479 -0.5349
   40TAL   C197 1009   7.244   8.272   3.387 -0.1141  0.1828  0.2744
   40TAL   C198 1010   7.313   8.408   3.396 -0.2933  0.0363 -0.3723
   40TAL   C199 1011   7.412   8.434   3.282 -0.1588 -0.3825  0.1064
   40TAL   C200 1012   7.502   8.555   3.287  0.2977  0.4607  0.5783
   41HTM   C201 1013   7.534   8.034   3.478 -0.5407 -0.0121 -0.0504
   41HTM   C202 1014   7.633   8.013   3.386 -0.7393 -0.3996 -0.1758
   41HTM   C203 1015   7.727   8.122   3.376 -0.5000 -0.6371 -0.5138
   41HTM   C204 1016   7.700   8.226   3.460 -0.1193 -0.4301 -0.6463
   41HTM    S21 1017   7.553   8.194   3.559 -0.0327  0.0846 -0.3520
   42TAL   C205 1018   7.841   8.112   3.278  0.1931  0.3866 -0.2490
   42TAL   C206 1019   7.960   8.017   3.313  0.0979  0.0988 -0.3114
   42TAL   C207 1020   8.094   8.018   3.230  0.0138 -0.0565 -0.0479
   42TAL   C208 1021   8.154   8.151   3.211 -0.1189 -0.4047  0.2479
   42TAL   C209 1022   8.293   8.152   3.147  0.3235 -0.0922  0.3869
   42TAL   C210 1023   8.357   8.290   3.124  0.5456 -0.6561  0.1747
   43HTM   C211 1024   7.773   8.351   3.485 -0.1813 -0.2064 -0.2502
   43HTM   C212 1025   7.722   8.464   3.542 -0.4163 -0.3681 -0.1367
   43HTM   C213 1026   7.819   8.570   3.556 -0.6125 -0.2146  0.0559
   43HTM   C214 1027   7.943   8.538   3.510 -0.5271  0.0641  0.0894
   43HTM    S22 1028   7.948   8.370   3.444 -0.1899  0.1555 -0.1215
   44TAL   C215 1029   7.779   8.697   3.631  0.2206 -0.2757  0.4557
   44TAL   C216 1030   7.682   8.798   3.568  0.1045 -0.6680  0.3737
   44TAL   C217 1031   7.721   8.856   3.428 -0.1911  0.8622 -0.1451
   44TAL   C218 1032   7.640   8.967   3.353  0.4037 -0.1489 -0.5979
   44TAL   C219 1033   7.626   9.100   3.428  0.1365  0.1734 -0.1318
   44TAL   C220 1034   7.711   9.217   3.378  0.3990  0.3042 -0.2817
   45HTM   C221 1035   8.064   8.627   3.495  0.0495 -0.3516  0.0942
   45HTM   C222 1036   8.086   8.758   3.528  0.2346 -0.5736  0.8850
   45HTM   C223 1037   8.220   8.803   3.498  0.2265 -0.5164  0.9353
   45HTM   C224 1038   8.300   8.707   3.443  0.0342 -0.2507  0.1829
   45HTM    S23 1039   8.212   8.551   3.424 -0.1526 -0.0505 -0.6538
   46TAL   C225 1040   8.266   8.949   3.524  0.1836  0.4831 -0.1592
   46TAL   C226 1041   8.278   8.993   3.670  0.6241 -0.7084  0.0690
   46TAL   C227 1042   8.147   9.007   3.754  0.0634  0.2718 -0.0379
   46TAL   C228 1043   8.026   9.091   3.712 -0.1272 -0.6009 -0.3974
   46TAL   C229 1044   7.897   9.059   3.785 -0.1201  0.5721 -0.2757
   46TAL   C230 1045   7.787   9.155   3.771  0.4837  0.0846 -0.3215
   47HTM   C231 1046   8.433   8.715   3.381  0.1630  0.2268  0.1229
   47HTM   C232 1047   8.518   8.819   3.358  0.0825  0.2718  0.0274
   47HTM   C233 1048   8.638   8.781   3.289 -0.0243  0.3548 -0.2033
   47HTM   C234 1049   8.645   8.649   3.259 -0.0249  0.3731 -0.2838
   47HTM    S24 1050   8.499   8.560   3.316  0.1103  0.2862 -0.0728
   48TAL   C235 1051   8.751   8.875   3.241  0.5759 -0.7496  0.0999
   48TAL   C236 1052   8.715   9.022   3.195 -0.6536  0.3386 -0.2486
   48TAL   C237 1053   8.648   9.116   3.294  0.0405 -0.0050 -0.0690
   48TAL   C238 1054   8.752   9.165   3.399  1.1198  0.2652 -0.5905
   48TAL   C239 1055   8.704   9.262   3.503 -0.0030 -0.5653 -0.3591
   48TAL   C240 1056   8.645   9.398   3.451  0.2493  0.2565 -0.1971
    1HTM     C1 1057   1.879   7.896   6.864  0.4843  0.1048 -0.2427
    1HTM     C2 1058   1.769   7.976   6.847  0.3545 -0.0222 -0.0103
    1HTM     C3 1059   1.680   7.931   6.744  0.1310 -0.1857  0.2546
    1HTM     C4 1060   1.720   7.817   6.682  0.0905 -0.1835  0.2240
    1HTM     S1 1061   1.876   7.757   6.750  0.3331  0.0266 -0.1442
    2TAL     C5 1062   1.543   7.999   6.720  0.0298 -0.2956  0.0566
    2TAL     C6 1063   1.496   8.099   6.827  0.3462 -0.2814 -0.0979
    2TAL     C7 1064   1.352   8.144   6.834 -0.5776 -0.4449  0.3746
    2TAL     C8 1065   1.370   8.277   6.917 -0.5718  0.0328 -0.3871
    2TAL     C9 1066   1.244   8.335   6.962 -0.0548  0.2257  0.0369
    2TAL    C10 1067   1.268   8.450   7.051 -0.2140 -0.5853 -0.6549
    3HTM    C11 1068   1.662   7.733   6.573  0.2053  0.0594 -0.1553
    3HTM    C12 1069   1.565   7.764   6.482  0.4362  0.1237 -0.3784
    3HTM    C13 1070   1.539   7.660   6.387  0.3566  0.0148 -0.2365
    3HTM    C14 1071   1.616   7.548   6.405  0.0649 -0.1329  0.0942
    3HTM     S2 1072   1.728   7.567   6.545 -0.1332 -0.1455  0.2544
    4TAL    C15 1073   1.420   7.701   6.301  0.2814  0.4309 -0.1378
    4TAL    C16 1074   1.450   7.723   6.154 -0.0944  0.5188  0.4655
    4TAL    C17 1075   1.333   7.771   6.071 -0.3872 -0.1818  0.0229
    4TAL    C18 1076   1.383   7.844   5.945  0.4728  0.7904  0.2940
    4TAL    C19 1077   1.281   7.924   5.873  1.2427 -1.1408 -0.4298
    4TAL    C20 1078   1.230   8.052   5.934  0.4685 -0.2010 -0.1789
    5HTM    C21 1079   1.610   7.424   6.332  0.6051 -0.0949 -0.3984
    5HTM    C22 1080   1.689   7.315   6.355  0.3940 -0.2623 -0.4551
    5HTM    C23 1081   1.666   7.206   6.265  0.0044 -0.2656 -0.3543
    5HTM    C24 1082   1.569   7.231   6.172 -0.0817 -0.1008 -0.2202
    5HTM     S3 1083   1.499   7.396   6.193  0.3259  0.0732 -0.2113
    6TAL    C25 1084   1.733   7.076   6.277  0.3992 -0.1162 -0.7463
    6TAL    C26 1085   1.884   7.064   6.236 -0.1877  0.0220 -0.3860
    6TAL    C27 1086   1.993   7.124   6.337  0.1255 -0.2009  1.1912
    6TAL    C28 1087   1.990   7.077   6.479  0.4726 -0.4393 -0.2871
    6TAL    C29 1088   2.091   7.136   6.573 -0.8873 -0.0538 -0.8743
    6TAL    C30 1089   2.063   7.079   6.716 -0.4273 -0.2175  0.0775
    7HTM    C31 1090   1.516   7.141   6.068 -0.5497  0.3140 -0.3574
    7HTM    C32 1091   1.500   7.171   5.936 -0.8603  0.3362 -0.3138
    7HTM    C33 1092   1.428   7.070   5.862 -0.7671  0.2060 -0.2272
    7HTM    C34 1093   1.390   6.963   5.938 -0.3854  0.0842 -0.2043
    7HTM     S4 1094   1.442   6.982   6.109 -0.1120  0.1249 -0.2912
    8TAL    C35 1095   1.420   7.081   5.708  0.3642  0.0480  0.1251
    8TAL    C36 1096   1.524   7.155   5.617 -0.4454 -0.6335 -0.7652
    8TAL    C37 1097   1.665   7.106   5.629  0.0696 -0.2266  0.3795
    8TAL    C38 1098   1.770   7.167   5.530 -0.8244  0.3094  0.0147
    8TAL    C39 1099   1.916   7.125   5.569  1.2403 -0.9624 -0.0245
    8TAL    C40 1100   2.013   7.200   5.484  0.0727 -0.1684 -0.1977
    9HTM    C41 1101   1.309   6.847   5.908 -0.1843  0.2202  0.2406
    9HTM    C42 1102   1.336   6.743   5.824  0.0799  0.3397  0.1779
    9HTM    C43 1103   1.241   6.636   5.831  0.1687  0.2391 -0.1283
    9HTM    C44 1104   1.140   6.658   5.921 -0.0276  0.0426 -0.2989
    9HTM     S5 1105   1.159   6.817   6.004 -0.3426 -0.0311 -0.0846
   10TAL    C45 1106   1.249   6.513   5.743 -1.3548 -0.1519  1.0440
   10TAL    C46 1107   1.349   6.410   5.786  0.4590  0.2933 -0.0907
   10TAL    C47 1108   1.322   6.279   5.708 -0.6521  0.2094  0.5680
   10TAL    C48 1109   1.433   6.171   5.718  0.4504 -0.5380  0.0642
   10TAL    C49 1110   1.421   6.062   5.612 -0.3395 -0.8794 -1.1076
   10TAL    C50 1111   1.548   5.996   5.574 -1.1456  0.2566 -0.6589
   11HTM    C51 1112   1.017   6.582   5.937  0.0337  0.1598 -0.1336
   11HTM    C52 1113   0.967   6.520   6.048  0.3701 -0.2561 -0.2112
   11HTM    C53 1114   0.848   6.442   6.023  0.5104 -0.4690 -0.2151
   11HTM    C54 1115   0.808   6.445   5.893  0.2812 -0.2153 -0.1408
   11HTM     S6 1116   0.917   6.546   5.791 -0.1330  0.3160 -0.0586
   12TAL    C55 1117   0.772   6.371   6.134 -0.3163  0.1040 -0.0447
   12TAL    C56 1118   0.801   6.222   6.127  0.4674 -0.3161 -0.3397
   12TAL    C57 1119   0.731   6.148   6.243  0.1031 -0.0562  0.1899
   12TAL    C58 1120   0.777   6.005   6.260  0.0590 -0.3730 -0.6625
   12TAL    C59 1121   0.757   5.916   6.139  0.1242  0.1316  0.5900
   12TAL    C60 1122   0.852   5.790   6.146 -0.6711 -0.4858  0.3282
   13HTM    C61 1123   0.704   6.375   5.818  0.2030  0.0439  0.2262
   13HTM    C62 1124   0.670   6.244   5.804  0.0761  0.0744  0.2477
   13HTM    C63 1125   0.562   6.222   5.712  0.1527  0.1500  0.1392
   13HTM    C64 1126   0.513   6.336   5.655  0.3380  0.1778  0.0353
   13HTM     S7 1127   0.601   6.482   5.715  0.4308  0.1094  0.0665
   14TAL    C65 1128   0.502   6.079   5.690  0.2688 -0.4613  0.2463
   14TAL    C66 1129   0.406   6.022   5.796 -0.2835 -0.2124  0.1493
   14TAL    C67 1130   0.447   6.031   5.946 -0.1152 -0.4078 -0.0600
   14TAL    C68 1131   0.340   6.086   6.041 -0.3649 -0.1280 -0.1800
   14TAL    C69 1132   0.296   6.235   6.036  0.2216 -0.2112  0.2469
   14TAL    C70 1133   0.394   6.323   6.111  0.2537 -0.4384  0.4010
   15HTM    C71 1134   0.401   6.365   5.568  0.2968  0.0609 -0.4708
   15HTM    C72 1135   0.330   6.286   5.483  0.4391  0.0267 -0.5579
   15HTM    C73 1136   0.212   6.349   5.430  0.2721 -0.1609 -0.4122
   15HTM    C74 1137   0.194   6.476   5.474  0.0026 -0.2695 -0.2143
   15HTM     S8 1138   0.324   6.527   5.588 -0.0618 -0.1424 -0.1964
   16TAL    C75 1139   0.133   6.257   5.329  0.0722 -0.3480 -0.2366
   16TAL    C76 1140   0.050   6.155   5.407  0.3223  0.6974  1.1216
   16TAL    C77 1141   0.119   6.023   5.449 -0.6028  0.2596  0.1858
   16TAL    C78 1142   0.147   5.934   5.327 -0.8862  0.1034  0.5548
   16TAL    C79 1143   0.232   5.806   5.348  0.0907 -0.2507 -0.6873
   16TAL    C80 1144   0.254   5.729   5.223  0.7650  0.3948  0.0997
   17HTM    C81 1145   0.076   6.566   5.477 -0.1096  0.1484 -0.1471
   17HTM    C82 1146  -0.050   6.519   5.458 -0.1631  0.3314 -0.2458
   17HTM    C83 1147  -0.153   6.610   5.503 -0.0539  0.2534  0.1597
   17HTM    C84 1148  -0.105   6.725   5.557  0.0817  0.0111  0.5681
   17HTM     S9 1149   0.076   6.730   5.554  0.0834 -0.1391  0.4709
   18TAL    C85 1150  -0.302   6.581   5.504 -0.3182  0.2990  0.6628
   18TAL    C86 1151  -0.354   6.445   5.440  0.1410 -1.3526 -0.2111
   18TAL    C87 1152  -0.330   6.310   5.508  0.6970  0.0677  0.3501
   18TAL    C88 1153  -0.352   6.179   5.426  0.4696 -0.2628  0.0036
   18TAL    C89 1154  -0.266   6.169   5.298  0.1216  0.1959  0.6161
   18TAL    C90 1155  -0.299   6.036   5.228 -0.4430  0.7004  0.2692
   19HTM    C91 1156  -0.172   6.838   5.621  0.0922  0.1208 -0.1157
   19HTM    C92 1157  -0.297   6.846   5.676 -0.1688  0.3359 -0.7298
   19HTM    C93 1158  -0.335   6.979   5.714 -0.1597  0.4139 -0.9885
   19HTM    C94 1159  -0.240   7.073   5.689  0.1083  0.2580 -0.5711
   19HTM    S10 1160  -0.093   7.000   5.614  0.3714 -0.0011  0.1865
   20TAL    C95 1161  -0.465   6.998   5.785  0.2283  0.1058  0.4282
   20TAL    C96 1162  -0.497   6.921   5.908  0.0928  0.0097 -0.2369
   20TAL    C97 1163  -0.638   6.953   5.949  0.2610  0.7061  0.2557
   20TAL    C98 1164  -0.679   6.884   6.079 -1.2250 -0.1082 -0.6292
   20TAL    C99 1165  -0.804   6.952   6.132 -0.3011  0.4356  0.2049
   20TAL   C100 1166  -0.872   6.864   6.232  0.3660  0.2588 -0.6940
   21HTM   C101 1167  -0.242   7.221   5.710 -0.3297  0.4532 -0.0800
   21HTM   C102 1168  -0.343   7.312   5.701 -0.1116  0.7205  0.1698
   21HTM   C103 1169  -0.299   7.448   5.718  0.2518  0.5865  0.3147
   21HTM   C104 1170  -0.165   7.461   5.741  0.3090  0.2176  0.1761
   21HTM    S11 1171  -0.083   7.300   5.742 -0.0919  0.0086 -0.1510
   22TAL   C105 1172  -0.402   7.563   5.704 -0.4496 -0.7442 -0.5867
   22TAL   C106 1173  -0.486   7.578   5.829  0.2154  0.2113  0.3143
   22TAL   C107 1174  -0.425   7.648   5.951 -0.0310 -0.2360 -0.1933
   22TAL   C108 1175  -0.513   7.681   6.072  0.1553  0.0335 -0.2978
   22TAL   C109 1176  -0.624   7.779   6.046  0.2880  0.3475  0.6058
   22TAL   C110 1177  -0.587   7.925   6.018 -0.0237 -0.3973 -0.9170
   23HTM   C111 1178  -0.078   7.581   5.750 -0.0183 -0.2839  0.0774
   23HTM   C112 1179  -0.096   7.695   5.824 -0.3357 -0.2477 -0.0560
   23HTM   C113 1180   0.003   7.796   5.799 -0.6633  0.0310 -0.2298
   23HTM   C114 1181   0.097   7.761   5.707 -0.5949  0.2068 -0.2283
   23HTM    S12 1182   0.067   7.595   5.643 -0.1078  0.0333 -0.0053
   24TAL   C115 1183  -0.010   7.934   5.871  0.3382  0.3230  0.2742
   24TAL   C116 1184  -0.143   7.999   5.895 -0.8321  0.3205  0.6651
   24TAL   C117 1185  -0.242   8.051   5.783 -1.2717 -0.3123 -0.1173
   24TAL   C118 1186  -0.332   7.957   5.704  0.7077 -0.2099 -0.4767
   24TAL   C119 1187  -0.465   8.010   5.636  0.0865 -0.3954 -0.6539
   24TAL   C120 1188  -0.580   7.917   5.649  0.5435  0.0670  0.1499
   25HTM   C121 1189   0.219   7.829   5.670 -0.5662  0.1528  0.2744
   25HTM   C122 1190   0.343   7.778   5.692 -0.7458 -0.1273  0.6421
   25HTM   C123 1191   0.450   7.868   5.658 -0.4402 -0.3984  0.8776
   25HTM   C124 1192   0.407   7.988   5.610 -0.0276 -0.3251  0.6900
   25HTM    S13 1193   0.227   7.997   5.604  0.0073  0.0951  0.1969
   26TAL   C125 1194   0.597   7.839   5.683  0.2736  0.1196  0.6616
   26TAL   C126 1195   0.636   7.719   5.771  0.3281 -0.1951  0.2769
   26TAL   C127 1196   0.790   7.691   5.784  0.5013 -1.0003 -0.5826
   26TAL   C128 1197   0.887   7.808   5.825  0.4391 -0.7804 -0.2695
   26TAL   C129 1198   0.897   7.875   5.962  0.4747 -0.1122  0.7018
   26TAL   C130 1199   0.794   7.978   5.993  0.0829  0.0659  0.4066
   27HTM   C131 1200   0.467   8.112   5.550  0.0229  0.0928 -0.1235
   27HTM   C132 1201   0.421   8.187   5.446  0.4516  0.1206 -0.2956
   27HTM   C133 1202   0.501   8.303   5.417  0.6309  0.0687 -0.0060
   27HTM   C134 1203   0.608   8.317   5.500  0.3389  0.0002  0.3873
   27HTM    S14 1204   0.617   8.184   5.621 -0.1894 -0.0035  0.4224
   28TAL   C135 1205   0.467   8.393   5.298 -0.1191 -0.0016  0.5739
   28TAL   C136 1206   0.324   8.447   5.272 -0.2048  0.0841 -0.7689
   28TAL   C137 1207   0.252   8.514   5.390 -0.0055 -0.5420 -0.1422
   28TAL   C138 1208   0.112   8.588   5.360 -0.2189  0.4546  0.5304
   28TAL   C139 1209   0.073   8.690   5.467  0.3114 -0.2109  0.3085
   28TAL   C140 1210  -0.055   8.764   5.443  0.1511 -0.0756 -0.1866
   29HTM   C141 1211   0.715   8.412   5.502 -0.4931  0.3045  0.4884
   29HTM   C142 1212   0.849   8.390   5.521 -0.5458  0.1693  0.7048
   29HTM   C143 1213   0.928   8.510   5.517 -0.3775  0.0510  0.5102
   29HTM   C144 1214   0.856   8.623   5.494 -0.1964  0.0953  0.1454
   29HTM    S15 1215   0.680   8.587   5.477 -0.2246  0.2926  0.0183
   30TAL   C145 1216   1.078   8.502   5.532  0.0795 -0.3616  0.7283
   30TAL   C146 1217   1.132   8.427   5.658 -0.2675 -0.5257  0.3786
   30TAL   C147 1218   1.287   8.407   5.670  0.3630 -0.5225 -0.4999
   30TAL   C148 1219   1.376   8.533   5.661 -0.2516 -0.6560  0.0540
   30TAL   C149 1220   1.530   8.509   5.674  1.1273 -0.1685  0.0217
   30TAL   C150 1221   1.602   8.640   5.653 -0.0121  0.0567  0.1024
   31HTM   C151 1222   0.893   8.759   5.492  0.0056  0.1319 -0.5249
   31HTM   C152 1223   0.974   8.821   5.402 -0.1844  0.3710 -0.5329
   31HTM   C153 1224   0.998   8.960   5.431 -0.2454  0.3328 -0.2999
   31HTM   C154 1225   0.935   9.004   5.544 -0.1019  0.0647 -0.1141
   31HTM    S16 1226   0.840   8.872   5.622  0.1231 -0.1620 -0.2199
   32TAL   C155 1227   1.093   9.034   5.346 -0.2545 -0.7042 -0.5131
   32TAL   C156 1228   1.245   8.993   5.356  0.2436  0.1392 -0.1811
   32TAL   C157 1229   1.321   8.976   5.487  0.0257  0.5520 -1.0854
   32TAL   C158 1230   1.340   9.099   5.588 -0.1518  0.2881  0.0858
   32TAL   C159 1231   1.401   9.227   5.528 -0.3365  0.2618  0.0391
   32TAL   C160 1232   1.401   9.337   5.635 -0.0377  0.3156  0.1626
   33HTM   C161 1233   0.957   9.125   5.620 -0.0512  0.0161 -0.3960
   33HTM   C162 1234   0.988   9.133   5.753 -0.4132 -0.2237 -0.2942
   33HTM   C163 1235   1.021   9.266   5.796 -0.6506 -0.2817  0.0646
   33HTM   C164 1236   1.015   9.359   5.697 -0.4696 -0.0862  0.2369
   33HTM    S17 1237   0.967   9.286   5.540  0.0185  0.1886 -0.0434
   34TAL   C165 1238   1.060   9.294   5.949  0.3220 -0.7728  0.0149
   34TAL   C166 1239   1.179   9.212   6.005 -0.3837 -0.8755 -0.8903
   34TAL   C167 1240   1.184   9.197   6.157  0.7154 -0.2591 -0.2166
   34TAL   C168 1241   1.191   9.316   6.251  0.4847 -0.0565 -0.5626
   34TAL   C169 1242   1.302   9.415   6.253 -0.1001 -0.3372  0.2851
   34TAL   C170 1243   1.267   9.543   6.330  0.0747 -0.3818 -0.0223
   35HTM   C171 1244   1.043   9.508   5.701  0.1022  0.2095 -0.4974
   35HTM   C172 1245   0.951   9.601   5.661  0.2293  0.3844 -0.3831
   35HTM   C173 1246   0.990   9.736   5.690  0.2238  0.2711  0.1712
   35HTM   C174 1247   1.111   9.747   5.751  0.0924  0.0099  0.4797
   35HTM    S18 1248   1.186   9.585   5.778 -0.0353 -0.1143  0.0906
   36TAL   C175 1249   0.899   9.852   5.655  0.7358  0.6626 -0.5264
   36TAL   C176 1250   0.906   9.915   5.518  0.2965 -0.0428  0.0543
   36TAL   C177 1251   1.018  10.015   5.524  0.1299 -0.4769  0.3018
   36TAL   C178 1252   1.053  10.100   5.397 -0.0471 -0.1980 -0.5876
   36TAL   C179 1253   1.090  10.248   5.427  0.2313 -0.2625 -0.0791
   36TAL   C180 1254   1.108  10.337   5.303  0.3538  0.0314 -0.2272
   37HTM   C181 1255   1.184   9.863   5.801 -0.3788  0.0092 -0.0068
   37HTM   C182 1256   1.304   9.908   5.756 -0.6858  0.1761 -0.6862
   37HTM   C183 1257   1.360  10.014   5.836 -0.3771  0.2440 -0.9871
   37HTM   C184 1258   1.281  10.050   5.942  0.1654  0.1287 -0.5374
   37HTM    S19 1259   1.130   9.952   5.948  0.3296 -0.0760  0.3076
   38TAL   C185 1260   1.505  10.061   5.809 -0.2646 -0.5348 -0.1595
   38TAL   C186 1261   1.566  10.079   5.666 -0.6190 -0.1993  0.3294
   38TAL   C187 1262   1.489  10.158   5.555 -0.4804  0.2354  0.2494
   38TAL   C188 1263   1.558  10.205   5.423  0.0836  0.4787  0.4549
   38TAL   C189 1264   1.462  10.263   5.320  0.2352  0.3577  0.4968
   38TAL   C190 1265   1.529  10.320   5.195  0.7873  0.4769  0.3418
   39HTM   C191 1266   1.312  10.141   6.052  0.1415 -0.4281  0.2464
   39HTM   C192 1267   1.268  10.130   6.181  0.0967 -0.4393  0.2303
   39HTM   C193 1268   1.317  10.234   6.268 -0.3116 -0.1785  0.1514
   39HTM   C194 1269   1.398  10.324   6.206 -0.5779  0.0317  0.1074
   39HTM    S20 1270   1.419  10.285   6.031 -0.3320 -0.0845  0.1625
   40TAL   C195 1271   1.258  10.249   6.403 -0.9706 -0.1711 -0.4167
   40TAL   C196 1272   1.287  10.130   6.490  0.5060  0.1140 -0.3201
   40TAL   C197 1273   1.428  10.091   6.521  0.1991 -0.5230  0.5778
   40TAL   C198 1274   1.420   9.976   6.628  0.3926 -0.2110  0.1142
   40TAL   C199 1275   1.546   9.922   6.682 -0.4559  0.3245 -0.1549
   40TAL   C200 1276   1.633  10.035   6.750  0.0836 -0.0538 -0.6533
   41HTM   C201 1277   1.462  10.448   6.253 -0.2402 -0.1521 -0.2884
   41HTM   C202 1278   1.503  10.484   6.378 -0.2404 -0.2668 -0.2546
   41HTM   C203 1279   1.576  10.608   6.381 -0.2907 -0.2400 -0.1328
   41HTM   C204 1280   1.591  10.666   6.258 -0.3288 -0.1048 -0.0737
   41HTM    S21 1281   1.512  10.568   6.129 -0.3040 -0.0001 -0.1681
   42TAL   C205 1282   1.632  10.661   6.508  0.0878 -0.3198 -0.4707
   42TAL   C206 1283   1.726  10.573   6.592  0.1161 -0.4597 -0.4242
   42TAL   C207 1284   1.826  10.647   6.676 -0.4058  0.2663 -0.1301
   42TAL   C208 1285   1.921  10.738   6.600 -0.0175  0.5228 -0.1530
   42TAL   C209 1286   2.021  10.807   6.691 -0.8522 -0.4274 -0.2592
   42TAL   C210 1287   2.107  10.904   6.618 -0.1107  0.5082  0.1827
   43HTM   C211 1288   1.661  10.787   6.231 -0.3165 -0.3804  0.2446
   43HTM   C212 1289   1.616  10.915   6.213 -0.7504 -0.4988  0.4635
   43HTM   C213 1290   1.722  11.009   6.187 -1.0879 -0.1277  0.4435
   43HTM   C214 1291   1.846  10.954   6.186 -0.9114  0.2736  0.2093
   43HTM    S22 1292   1.840  10.777   6.217 -0.3003  0.2135 -0.0053
   44TAL   C215 1293   1.698  11.163   6.193 -0.2146  0.4658  0.0974
   44TAL   C216 1294   1.589  11.233   6.279 -0.0839  0.2642  0.1346
   44TAL   C217 1295   1.576  11.191   6.427  0.1345 -0.6033  0.2940
   44TAL   C218 1296   1.702  11.169   6.511 -0.0662  0.4701 -0.4242
   44TAL   C219 1297   1.682  11.145   6.662  1.0632  0.3386  0.2398
   44TAL   C220 1298   1.805  11.161   6.742  0.1531 -0.6740 -0.6200
   45HTM   C221 1299   1.976  11.029   6.186  0.5220  0.3118  0.1243
   45HTM   C222 1300   2.043  11.078   6.294  0.4827  0.6167  0.0129
   45HTM   C223 1301   2.155  11.162   6.261  0.2818  0.8090 -0.1783
   45HTM   C224 1302   2.174  11.178   6.127  0.1679  0.6507 -0.2130
   45HTM    S23 1303   2.050  11.087   6.031  0.3065  0.2437 -0.0050
   46TAL   C225 1304   2.253  11.207   6.371 -0.1229  0.2672 -0.5390
   46TAL   C226 1305   2.186  11.271   6.501 -0.9041  0.2188 -0.2599
   46TAL   C227 1306   2.119  11.407   6.482 -0.0021  0.0186  0.6777
   46TAL   C228 1307   2.051  11.452   6.611  0.0916 -0.1518  1.1949
   46TAL   C229 1308   1.972  11.587   6.598  0.1411  0.1203  0.9850
   46TAL   C230 1309   2.045  11.713   6.569 -1.1701  0.6385 -0.6679
   47HTM   C231 1310   2.269  11.251   6.051 -0.1024 -0.3943 -0.2594
   47HTM   C232 1311   2.320  11.211   5.931 -0.1333 -0.1385 -0.3574
   47HTM   C233 1312   2.429  11.293   5.885 -0.3406  0.1409 -0.3552
   47HTM   C234 1313   2.461  11.395   5.969 -0.4675  0.0982 -0.2554
   47HTM    S24 1314   2.355  11.396   6.115 -0.3343 -0.3014 -0.1556
   48TAL   C235 1315   2.496  11.262   5.757 -0.5588 -0.2506 -0.1082
   48TAL   C236 1316   2.645  11.304   5.735 -0.1363  0.4386  0.2133
   48TAL   C237 1317   2.693  11.272   5.591 -0.0655  1.0028 -0.7745
   48TAL   C238 1318   2.702  11.119   5.555 -0.2453 -0.1744 -0.1984
   48TAL   C239 1319   2.734  11.078   5.410  0.5282 -0.3764 -0.6037
   48TAL   C240 1320   2.607  11.092   5.321 -0.5171  0.2419  0.1235
    1HTM     C1 1321   6.496   5.689   0.450  0.4433  0.3043  0.1428
    1HTM     C2 1322   6.544   5.651   0.328  0.6785  0.2518  0.2494
    1HTM     C3 1323   6.546   5.758   0.231  0.3879  0.0885  0.0615
    1HTM     C4 1324   6.500   5.877   0.280 -0.0685  0.0165 -0.1883
    1HTM     S1 1325   6.450   5.863   0.453 -0.1680  0.1505 -0.2058
    2TAL     C5 1326   6.601   5.748   0.089  0.3174  0.5180  0.1924
    2TAL     C6 1327   6.598   5.616   0.019  0.3855  0.5439  0.2642
    2TAL     C7 1328   6.707   5.522   0.073  0.3632  0.1020  0.4670
    2TAL     C8 1329   6.745   5.397  -0.015 -0.0671  0.2029  0.1114
    2TAL     C9 1330   6.871   5.323   0.026  0.1533  0.7621 -0.0148
    2TAL    C10 1331   6.891   5.193  -0.047  0.7539  0.2854 -0.4778
    3HTM    C11 1332   6.463   6.004   0.220  0.1859  0.1087  0.1142
    3HTM    C12 1333   6.528   6.118   0.185  0.0629  0.0925 -0.1692
    3HTM    C13 1334   6.440   6.224   0.142 -0.0660 -0.0288 -0.2061
    3HTM    C14 1335   6.308   6.190   0.145 -0.0412 -0.1050  0.0490
    3HTM     S2 1336   6.284   6.021   0.202  0.1480 -0.0296  0.3582
    4TAL    C15 1337   6.494   6.359   0.100  0.2279 -0.3443  0.2839
    4TAL    C16 1338   6.640   6.400   0.124  0.6285 -0.2890  0.6871
    4TAL    C17 1339   6.642   6.557   0.117  0.1280  0.3322  0.0331
    4TAL    C18 1340   6.776   6.614   0.129 -0.4848  0.0071 -0.4844
    4TAL    C19 1341   6.769   6.766   0.102 -0.6932  0.1841  0.4419
    4TAL    C20 1342   6.912   6.827   0.102  0.7064 -0.3905 -0.7358
    5HTM    C21 1343   6.182   6.263   0.115 -0.1920  0.4056  0.2972
    5HTM    C22 1344   6.147   6.394   0.121 -0.3853  0.3836 -0.2558
    5HTM    C23 1345   6.008   6.419   0.090 -0.3424  0.0904 -0.6884
    5HTM    C24 1346   5.938   6.306   0.060 -0.1166 -0.1105 -0.4652
    5HTM     S3 1347   6.042   6.159   0.069  0.0611  0.0559  0.3147
    6TAL    C25 1348   5.970   6.570   0.084 -0.3445  0.3107 -0.3263
    6TAL    C26 1349   6.030   6.669   0.188 -0.0415 -0.1310 -0.5132
    6TAL    C27 1350   6.013   6.816   0.167  0.2787  0.3383  0.8662
    6TAL    C28 1351   6.066   6.878   0.031 -0.2953 -0.6154 -0.4168
    6TAL    C29 1352   5.996   6.850  -0.098  0.3521 -0.5561  0.5722
    6TAL    C30 1353   6.054   6.928  -0.212 -0.1220  0.8819 -0.0869
    7HTM    C31 1354   5.801   6.272   0.036  0.0833  0.2261  0.7412
    7HTM    C32 1355   5.714   6.351  -0.034  0.0110  0.4220  1.0448
    7HTM    C33 1356   5.584   6.292  -0.051  0.0710  0.3548  0.7997
    7HTM    C34 1357   5.570   6.170   0.007  0.1896  0.1075  0.3101
    7HTM     S4 1358   5.723   6.118   0.088  0.2345 -0.0603  0.1183
    8TAL    C35 1359   5.476   6.366  -0.129  0.1556  0.4771  0.0861
    8TAL    C36 1360   5.381   6.434  -0.031 -0.6145  0.6869  0.2533
    8TAL    C37 1361   5.307   6.534  -0.108 -0.4503 -0.7380  0.7039
    8TAL    C38 1362   5.211   6.612  -0.021  0.5812 -0.3462  0.2448
    8TAL    C39 1363   5.208   6.765  -0.061 -0.4955  0.1093 -0.1235
    8TAL    C40 1364   5.115   6.838   0.025 -1.2001 -0.3160 -0.0161
    9HTM    C41 1365   5.453   6.082   0.021 -0.3011  0.2526 -0.0858
    9HTM    C42 1366   5.351   6.051  -0.064 -0.4311  0.0551  0.1407
    9HTM    C43 1367   5.273   5.938  -0.022 -0.1090 -0.1054  0.3076
    9HTM    C44 1368   5.316   5.882   0.095  0.2656 -0.0303  0.2081
    9HTM     S5 1369   5.459   5.969   0.162  0.2415  0.2514 -0.1063
   10TAL    C45 1370   5.149   5.896  -0.102 -0.8675 -0.0760 -0.2007
   10TAL    C46 1371   5.174   5.813  -0.226  0.1519  0.6018  0.4121
   10TAL    C47 1372   5.195   5.665  -0.204 -0.2119 -0.1407 -0.0428
   10TAL    C48 1373   5.231   5.589  -0.331 -0.1620  0.7054  0.3166
   10TAL    C49 1374   5.229   5.438  -0.303  0.9516 -0.2563  0.4753
   10TAL    C50 1375   5.251   5.360  -0.441  0.1718 -0.4817 -0.1949
   11HTM    C51 1376   5.261   5.766   0.169 -0.1933  0.0933  0.5328
   11HTM    C52 1377   5.341   5.678   0.237 -0.2768  0.2019  0.7751
   11HTM    C53 1378   5.273   5.557   0.276 -0.2513  0.1419  0.6336
   11HTM    C54 1379   5.142   5.553   0.238 -0.1479 -0.0125  0.2832
   11HTM     S6 1380   5.093   5.703   0.150 -0.0744 -0.0946  0.1036
   12TAL    C55 1381   5.353   5.440   0.340  0.0548  0.2927  0.1231
   12TAL    C56 1382   5.482   5.388   0.261  0.9171 -0.0617  0.1332
   12TAL    C57 1383   5.462   5.352   0.116 -0.2248  0.7560  0.4408
   12TAL    C58 1384   5.557   5.406   0.013 -0.2491  0.3936 -0.3161
   12TAL    C59 1385   5.534   5.342  -0.125 -0.2205 -0.3202 -0.5322
   12TAL    C60 1386   5.632   5.393  -0.222  0.5397 -0.1013  0.4321
   13HTM    C61 1387   5.037   5.455   0.263  0.3677  0.1988 -0.5760
   13HTM    C62 1388   4.929   5.476   0.344  0.5858  0.5867 -0.3844
   13HTM    C63 1389   4.836   5.367   0.346  0.3717  0.7758  0.0554
   13HTM    C64 1390   4.872   5.262   0.267 -0.0100  0.5320  0.1992
   13HTM     S7 1391   5.029   5.294   0.183 -0.1292  0.0411 -0.2129
   14TAL    C65 1392   4.718   5.350   0.442 -0.7270 -0.7692 -0.2073
   14TAL    C66 1393   4.623   5.471   0.440 -0.1709 -0.0950 -0.4685
   14TAL    C67 1394   4.515   5.469   0.326 -0.6122 -0.2090 -0.2384
   14TAL    C68 1395   4.418   5.584   0.353 -0.0874 -0.5948 -0.1166
   14TAL    C69 1396   4.305   5.580   0.252 -0.4025 -0.0424 -0.0965
   14TAL    C70 1397   4.181   5.657   0.289 -0.4385  0.3377 -0.0954
   15HTM    C71 1398   4.805   5.139   0.241 -0.0539  0.2731  0.1754
   15HTM    C72 1399   4.855   5.012   0.253  0.1268  0.3431  0.1759
   15HTM    C73 1400   4.762   4.910   0.213  0.3190  0.2162  0.0546
   15HTM    C74 1401   4.642   4.958   0.170  0.2849  0.0497 -0.0384
   15HTM     S8 1402   4.637   5.138   0.177  0.0054  0.0396  0.0205
   16TAL    C75 1403   4.815   4.768   0.217  0.2184 -0.3099 -0.0933
   16TAL    C76 1404   4.810   4.685   0.346 -0.4764 -0.3104 -0.0319
   16TAL    C77 1405   4.680   4.623   0.401  0.3615 -0.4306  0.3943
   16TAL    C78 1406   4.569   4.712   0.462 -0.9177  0.2170 -0.2185
   16TAL    C79 1407   4.615   4.807   0.567  0.2485  0.6616 -0.2721
   16TAL    C80 1408   4.502   4.905   0.603  0.2818  0.3734 -0.7444
   17HTM    C81 1409   4.527   4.894   0.122 -0.2723  0.0337  0.4583
   17HTM    C82 1410   4.395   4.914   0.148 -0.3276 -0.1271  0.3031
   17HTM    C83 1411   4.307   4.844   0.058 -0.1380 -0.0331  0.0434
   17HTM    C84 1412   4.372   4.771  -0.037  0.0614  0.1991  0.0009
   17HTM     S9 1413   4.551   4.785  -0.020  0.0254  0.3181  0.2866
   18TAL    C85 1414   4.158   4.831   0.076  0.4783 -0.1250 -0.3233
   18TAL    C86 1415   4.064   4.911  -0.013  0.3064  0.1872 -0.0010
   18TAL    C87 1416   3.918   4.889   0.010  0.7733  0.2708  0.4737
   18TAL    C88 1417   3.865   4.757  -0.036  0.3011  0.2453  0.7179
   18TAL    C89 1418   3.713   4.751  -0.020 -0.4246  0.2585  0.2490
   18TAL    C90 1419   3.644   4.629  -0.063  0.0338  0.5904  0.1668
   19HTM    C91 1420   4.320   4.720  -0.163 -0.0337 -0.2585  0.0761
   19HTM    C92 1421   4.267   4.602  -0.206 -0.0737 -0.1850 -0.0758
   19HTM    C93 1422   4.205   4.611  -0.336 -0.0067 -0.0143 -0.0973
   19HTM    C94 1423   4.211   4.735  -0.391  0.0848  0.0423  0.0381
   19HTM    S10 1424   4.296   4.852  -0.283  0.0931 -0.1169  0.2051
   20TAL    C95 1425   4.137   4.487  -0.391 -0.4608 -0.2055 -0.0019
   20TAL    C96 1426   3.993   4.493  -0.437  0.0276  0.1268  0.9492
   20TAL    C97 1427   3.898   4.592  -0.363 -0.1979  0.0686 -0.0103
   20TAL    C98 1428   3.755   4.585  -0.410  0.2553 -0.1791  0.5829
   20TAL    C99 1429   3.688   4.449  -0.419 -0.4425 -0.4702  0.4003
   20TAL   C100 1430   3.544   4.480  -0.454 -0.0988  0.1278 -0.6902
   21HTM   C101 1431   4.148   4.804  -0.501 -0.1898 -0.3785  0.2238
   21HTM   C102 1432   4.186   4.790  -0.631 -0.3211 -0.4103  0.1898
   21HTM   C103 1433   4.141   4.898  -0.716 -0.3061 -0.3717  0.2313
   21HTM   C104 1434   4.070   4.994  -0.651 -0.1632 -0.3100  0.2967
   21HTM    S11 1435   4.053   4.956  -0.475 -0.0357 -0.2964  0.3117
   22TAL   C105 1436   4.171   4.894  -0.860  1.1066 -0.1697  0.2836
   22TAL   C106 1437   4.087   4.785  -0.934  0.2773  0.4863 -0.5268
   22TAL   C107 1438   4.052   4.812  -1.073  0.0286 -0.7304  0.8690
   22TAL   C108 1439   3.971   4.938  -1.124 -0.5903 -0.2840 -0.3047
   22TAL   C109 1440   3.841   4.967  -1.044 -0.4353  0.3141  0.4391
   22TAL   C110 1441   3.833   5.117  -1.013  0.8296  0.0799 -0.4564
   23HTM   C111 1442   4.039   5.130  -0.694 -0.2973 -0.1869 -0.5865
   23HTM   C112 1443   4.133   5.223  -0.726 -0.3722 -0.4299 -1.5521
   23HTM   C113 1444   4.087   5.359  -0.713 -0.0646 -0.3169 -1.6379
   23HTM   C114 1445   3.958   5.369  -0.671  0.2456  0.0126 -0.7397
   23HTM    S12 1446   3.883   5.207  -0.644  0.1722  0.2072  0.2943
   24TAL   C115 1447   4.173   5.481  -0.742 -0.1008 -0.3058  0.3592
   24TAL   C116 1448   4.319   5.464  -0.764 -0.3765 -0.6122  0.3051
   24TAL   C117 1449   4.365   5.465  -0.904  0.5521  0.4443  0.2105
   24TAL   C118 1450   4.324   5.367  -1.013 -0.5464  0.3930  0.2551
   24TAL   C119 1451   4.354   5.219  -0.988  0.4391  0.0512 -0.5133
   24TAL   C120 1452   4.309   5.143  -1.107  0.1799 -0.4665  0.1465
   25HTM   C121 1453   3.865   5.476  -0.646 -0.1813  0.0249  0.4658
   25HTM   C122 1454   3.732   5.480  -0.678 -0.1929  0.0348  0.5140
   25HTM   C123 1455   3.667   5.604  -0.643 -0.1162  0.1295  0.3252
   25HTM   C124 1456   3.751   5.694  -0.584 -0.0465  0.1915  0.1337
   25HTM    S13 1457   3.918   5.630  -0.568 -0.0723  0.1348  0.1762
   26TAL   C125 1458   3.515   5.617  -0.649  0.0618  0.4226 -0.4410
   26TAL   C126 1459   3.449   5.594  -0.785  0.1007 -0.2092 -0.4955
   26TAL   C127 1460   3.299   5.600  -0.794  0.2102  0.4752  0.0211
   26TAL   C128 1461   3.222   5.732  -0.752  0.6893  0.0073 -0.0288
   26TAL   C129 1462   3.269   5.851  -0.839  0.0805 -0.2862 -0.4410
   26TAL   C130 1463   3.204   5.980  -0.795 -0.5026 -0.0931  0.4676
   27HTM   C131 1464   3.708   5.835  -0.556  0.2702  0.0616  0.2284
   27HTM   C132 1465   3.707   5.898  -0.435  0.5320  0.0958  0.2141
   27HTM   C133 1466   3.654   6.031  -0.439  0.5262  0.0958  0.2890
   27HTM   C134 1467   3.615   6.071  -0.563  0.2596  0.0617  0.3614
   27HTM    S14 1468   3.642   5.942  -0.686 -0.0064  0.0260  0.3392
   28TAL   C135 1469   3.657   6.111  -0.308 -0.1253 -0.0880 -0.5158
   28TAL   C136 1470   3.560   6.076  -0.196  0.2349 -0.9135  0.3519
   28TAL   C137 1471   3.409   6.099  -0.236 -0.7452  0.4666 -0.1583
   28TAL   C138 1472   3.354   6.226  -0.306  0.4233  0.0972  0.4361
   28TAL   C139 1473   3.207   6.218  -0.343  0.2786  0.6712  0.4625
   28TAL   C140 1474   3.162   6.100  -0.434 -0.1922  0.2922  0.3681
   29HTM   C141 1475   3.560   6.196  -0.615 -0.0131  0.0953 -0.3617
   29HTM   C142 1476   3.453   6.211  -0.698  0.1364  0.3700 -0.5093
   29HTM   C143 1477   3.418   6.348  -0.725  0.2325  0.4601 -0.1779
   29HTM   C144 1478   3.499   6.438  -0.663  0.1561  0.2546  0.2221
   29HTM    S15 1479   3.626   6.356  -0.564 -0.0444 -0.0720  0.2116
   30TAL   C145 1480   3.300   6.371  -0.813  0.0717 -0.4965  0.3440
   30TAL   C146 1481   3.162   6.372  -0.741 -0.0666  0.0615 -0.7715
   30TAL   C147 1482   3.053   6.426  -0.832 -0.1995  0.0516 -0.0568
   30TAL   C148 1483   3.077   6.568  -0.889 -0.5314  0.4501  0.4314
   30TAL   C149 1484   2.966   6.636  -0.955  0.2659 -0.8483  0.3711
   30TAL   C150 1485   3.011   6.750  -1.050 -1.6071  0.7360 -0.0301
   31HTM   C151 1486   3.505   6.585  -0.661 -0.0242 -0.2831 -0.1191
   31HTM   C152 1487   3.615   6.661  -0.636  0.1609 -0.4175 -0.5159
   31HTM   C153 1488   3.606   6.795  -0.688  0.2519 -0.4902 -0.7205
   31HTM   C154 1489   3.489   6.821  -0.752  0.1359 -0.4118 -0.4801
   31HTM    S16 1490   3.380   6.677  -0.753 -0.0991 -0.2379  0.0276
   32TAL   C155 1491   3.719   6.895  -0.666 -0.2587 -0.0373 -0.4761
   32TAL   C156 1492   3.850   6.866  -0.739  0.7079  0.0393 -0.7651
   32TAL   C157 1493   3.969   6.963  -0.703 -0.0172  0.9108 -0.3431
   32TAL   C158 1494   3.952   7.114  -0.731 -0.0681  0.1759 -0.3647
   32TAL   C159 1495   3.962   7.162  -0.874  1.0520  0.1919  0.3975
   32TAL   C160 1496   3.962   7.307  -0.895  0.2892  0.0197 -0.4310
   33HTM   C161 1497   3.444   6.939  -0.820  0.3073 -0.5457 -0.2300
   33HTM   C162 1498   3.329   6.952  -0.892  0.4021 -0.9212 -0.4511
   33HTM   C163 1499   3.319   7.077  -0.963  0.0331 -0.8576 -0.2918
   33HTM   C164 1500   3.426   7.159  -0.946 -0.3428 -0.4334  0.0511
   33HTM    S17 1501   3.549   7.085  -0.837 -0.2594 -0.0794  0.1998
   34TAL   C165 1502   3.188   7.102  -1.039  0.0016 -0.0733  0.0151
   34TAL   C166 1503   3.212   7.078  -1.188 -0.3527 -0.3467  0.2701
   34TAL   C167 1504   3.090   7.113  -1.266 -0.0894 -0.9798 -0.0814
   34TAL   C168 1505   3.087   7.265  -1.294 -0.4835  0.5625  0.3021
   34TAL   C169 1506   2.966   7.317  -1.371 -1.1772  0.3591  0.4931
   34TAL   C170 1507   2.949   7.467  -1.395  0.6382 -0.0663 -0.0218
   35HTM   C171 1508   3.444   7.287  -1.001 -0.0311 -0.0460 -0.1281
   35HTM   C172 1509   3.560   7.349  -1.037 -0.1190 -0.2637 -0.8004
   35HTM   C173 1510   3.543   7.484  -1.083 -0.1490 -0.2828 -0.8450
   35HTM   C174 1511   3.413   7.526  -1.083 -0.0838 -0.0795 -0.2066
   35HTM    S18 1512   3.302   7.397  -1.023  0.0213  0.1540  0.5061
   36TAL   C175 1513   3.665   7.564  -1.120  0.8283  0.4818  0.2339
   36TAL   C176 1514   3.751   7.616  -1.007  0.4398  0.4049  0.4526
   36TAL   C177 1515   3.850   7.722  -1.038 -0.6552  0.3329  0.5729
   36TAL   C178 1516   3.913   7.778  -0.908  0.6665 -1.0109 -0.5158
   36TAL   C179 1517   3.957   7.921  -0.910  0.1562  0.1370  0.2454
   36TAL   C180 1518   4.025   7.973  -0.784  0.0961 -0.0611  0.0141
   37HTM   C181 1519   3.349   7.648  -1.121  0.0051  0.2833  0.3067
   37HTM   C182 1520   3.408   7.768  -1.148 -0.0876  0.2203 -0.1798
   37HTM   C183 1521   3.315   7.873  -1.178 -0.1678  0.0196 -0.6447
   37HTM   C184 1522   3.184   7.834  -1.174 -0.1363 -0.0711 -0.5132
   37HTM    S19 1523   3.169   7.659  -1.131 -0.0017  0.0922  0.2142
   38TAL   C185 1524   3.358   8.002  -1.234 -0.0263  0.0327  0.3373
   38TAL   C186 1525   3.501   8.056  -1.201 -0.2658  0.1346 -0.1199
   38TAL   C187 1526   3.545   8.177  -1.281 -0.5376  0.4733  0.1083
   38TAL   C188 1527   3.460   8.301  -1.281 -0.2129 -0.0582  0.0217
   38TAL   C189 1528   3.461   8.374  -1.145  0.6290  0.6310 -0.3225
   38TAL   C190 1529   3.335   8.466  -1.128 -0.0132  0.0019 -0.7849
   39HTM   C191 1530   3.057   7.914  -1.180  0.4009  0.2038  0.2001
   39HTM   C192 1531   2.938   7.872  -1.233  0.6655  0.0572 -0.2868
   39HTM   C193 1532   2.842   7.978  -1.249  0.4920 -0.1163 -0.3893
   39HTM   C194 1533   2.887   8.100  -1.208  0.0951 -0.1020  0.0190
   39HTM    S20 1534   3.056   8.091  -1.147 -0.0920  0.1326  0.5696
   40TAL   C195 1535   2.699   7.950  -1.274  0.3642 -0.2740  0.4127
   40TAL   C196 1536   2.659   7.844  -1.384 -0.3346  0.2619  0.2761
   40TAL   C197 1537   2.695   7.870  -1.530  0.6496  0.1889  0.4208
   40TAL   C198 1538   2.646   7.752  -1.618 -0.3869  0.3872  0.0484
   40TAL   C199 1539   2.679   7.769  -1.760 -0.0304 -0.8087  0.2182
   40TAL   C200 1540   2.626   7.652  -1.842 -0.0801  0.3063 -0.0133
   41HTM   C201 1541   2.834   8.236  -1.216  0.3881  0.2643 -0.0181
   41HTM   C202 1542   2.873   8.345  -1.145  0.3432  0.2828 -0.0196
   41HTM   C203 1543   2.799   8.465  -1.176  0.2365  0.2317  0.0412
   41HTM   C204 1544   2.702   8.446  -1.271  0.2001  0.1749  0.0893
   41HTM    S21 1545   2.698   8.275  -1.328  0.2986  0.1816  0.0611
   42TAL   C205 1546   2.832   8.597  -1.105  0.5280  0.2622  0.1282
   42TAL   C206 1547   2.978   8.623  -1.081  0.5747 -0.7728 -0.1733
   42TAL   C207 1548   2.996   8.747  -0.989  0.1502 -0.0422 -0.0941
   42TAL   C208 1549   3.136   8.804  -1.010  0.0896 -0.4410 -0.6851
   42TAL   C209 1550   3.174   8.928  -0.932 -0.3721 -0.7474 -1.0716
   42TAL   C210 1551   3.098   9.056  -0.955  0.1314  0.0638 -0.4533
   43HTM   C211 1552   2.599   8.535  -1.327  0.3279  0.2619  0.4417
   43HTM   C212 1553   2.566   8.544  -1.459  0.7308  0.3204  0.3440
   43HTM   C213 1554   2.469   8.647  -1.488  0.5178  0.0682  0.1528
   43HTM   C214 1555   2.428   8.716  -1.378 -0.0470 -0.1826  0.1046
   43HTM    S22 1556   2.509   8.656  -1.228 -0.3564 -0.1194  0.2981
   44TAL   C215 1557   2.445   8.689  -1.631  0.1214  0.1135 -0.1603
   44TAL   C216 1558   2.382   8.589  -1.731  0.3238  0.2923 -0.2558
   44TAL   C217 1559   2.322   8.657  -1.860  0.1205 -0.0072 -0.3307
   44TAL   C218 1560   2.250   8.560  -1.960 -0.2263 -0.0402 -0.4346
   44TAL   C219 1561   2.150   8.617  -2.060 -0.3892 -0.3327 -0.2666
   44TAL   C220 1562   2.189   8.747  -2.121  0.3887 -0.1678 -0.2690
   45HTM   C221 1563   2.341   8.833  -1.370  0.2692  0.5906  0.2212
   45HTM   C222 1564   2.329   8.919  -1.265 -0.0026  0.7682  0.0465
   45HTM   C223 1565   2.220   9.012  -1.278 -0.2525  0.4458 -0.1776
   45HTM   C224 1566   2.148   8.997  -1.393 -0.1710  0.0222 -0.1740
   45HTM    S23 1567   2.214   8.863  -1.494  0.2306 -0.0023  0.1149
   46TAL   C225 1568   2.202   9.104  -1.158 -0.0669  0.6246  0.6867
   46TAL   C226 1569   2.066   9.165  -1.130 -0.9163 -0.0381  0.1229
   46TAL   C227 1570   1.952   9.064  -1.088  0.1874  0.1787  0.2497
   46TAL   C228 1571   1.820   9.138  -1.064 -0.2214  0.1920  0.2141
   46TAL   C229 1572   1.711   9.044  -1.031 -0.2171  0.0016  0.5463
   46TAL   C230 1573   1.616   9.117  -0.944  0.4439 -0.6499 -0.3498
   47HTM   C231 1574   2.039   9.079  -1.439 -0.1610  0.3971 -0.1098
   47HTM   C232 1575   1.906   9.052  -1.449 -0.2743  0.7936  0.2887
   47HTM   C233 1576   1.832   9.152  -1.522 -0.1476  0.8847  0.2851
   47HTM   C234 1577   1.909   9.256  -1.566  0.0622  0.5577 -0.1162
   47HTM    S24 1578   2.082   9.234  -1.520  0.1166  0.1058 -0.5240
   48TAL   C235 1579   1.677   9.139  -1.536  0.9080  0.1078 -0.1155
   48TAL   C236 1580   1.602   9.260  -1.600 -0.0038  0.2995  0.3234
   48TAL   C237 1581   1.631   9.285  -1.751 -0.3152  0.5990 -0.8563
   48TAL   C238 1582   1.596   9.424  -1.809  0.1563 -0.1785  0.5667
   48TAL   C239 1583   1.617   9.448  -1.960 -0.1132 -0.1840 -0.7101
   48TAL   C240 1584   1.565   9.584  -2.002 -0.4020 -0.3757 -0.2053
    1HTM     C1 1585   7.841   7.772   7.189  0.1236  0.1816 -0.1112
    1HTM     C2 1586   7.917   7.858   7.262  0.1917  0.1223 -0.1118
    1HTM     C3 1587   8.047   7.806   7.295  0.0930 -0.0424  0.0212
    1HTM     C4 1588   8.071   7.681   7.247 -0.0491 -0.1092  0.1235
    1HTM     S1 1589   7.929   7.618   7.155 -0.0706  0.0320  0.0591
    2TAL     C5 1590   8.155   7.876   7.384  0.0633 -0.2727 -0.2670
    2TAL     C6 1591   8.098   7.992   7.460  0.1778  0.8652  0.3870
    2TAL     C7 1592   8.185   8.046   7.574  0.3737  0.2798  0.4085
    2TAL     C8 1593   8.111   8.125   7.678  0.5149 -0.0976 -0.3106
    2TAL     C9 1594   8.205   8.175   7.785  0.5757  0.4036 -0.8895
    2TAL    C10 1595   8.150   8.285   7.868  0.6335  0.1952 -0.4886
    3HTM    C11 1596   8.175   7.585   7.262  0.1820 -0.2579  0.1244
    3HTM    C12 1597   8.154   7.455   7.295  0.1631 -0.2038  0.3300
    3HTM    C13 1598   8.273   7.386   7.337  0.1974 -0.2208  0.2041
    3HTM    C14 1599   8.385   7.464   7.336  0.2425 -0.2878 -0.0977
    3HTM     S2 1600   8.348   7.632   7.282  0.2457 -0.3352 -0.2475
    4TAL    C15 1601   8.253   7.240   7.379 -0.0593 -0.1331 -0.2058
    4TAL    C16 1602   8.366   7.150   7.431  0.3649  0.1320  0.3167
    4TAL    C17 1603   8.344   7.029   7.519  0.5730 -0.5043 -0.2108
    4TAL    C18 1604   8.351   7.061   7.665 -0.5286 -0.2998 -0.3608
    4TAL    C19 1605   8.362   6.938   7.744  0.5252 -0.2893  0.5194
    4TAL    C20 1606   8.333   6.963   7.891  0.4462  0.7282  0.0064
    5HTM    C21 1607   8.520   7.436   7.386 -0.0325 -0.3211 -0.3357
    5HTM    C22 1608   8.567   7.469   7.510 -0.7849 -0.6447  0.0441
    5HTM    C23 1609   8.703   7.428   7.532 -1.0028 -0.9458  0.8702
    5HTM    C24 1610   8.760   7.365   7.425 -0.4160 -0.8519  1.1201
    5HTM     S3 1611   8.644   7.352   7.287  0.4630 -0.3718  0.3256
    6TAL    C25 1612   8.784   7.454   7.661 -0.7592 -0.1991 -0.2612
    6TAL    C26 1613   8.719   7.425   7.799  0.0997 -0.7070 -0.3402
    6TAL    C27 1614   8.644   7.298   7.813  0.3845  0.6968  0.7178
    6TAL    C28 1615   8.544   7.266   7.925  0.4765  0.0720  0.2754
    6TAL    C29 1616   8.418   7.342   7.916  0.0720 -0.1032  0.0868
    6TAL    C30 1617   8.302   7.314   8.013 -0.0906  0.0316  0.0153
    7HTM    C31 1618   8.891   7.314   7.401  0.5683  0.1455 -0.5446
    7HTM    C32 1619   8.966   7.320   7.287  1.2279  0.2604 -0.1125
    7HTM    C33 1620   9.095   7.258   7.299  1.0381 -0.0248  0.4783
    7HTM    C34 1621   9.119   7.204   7.422  0.2342 -0.3570  0.4968
    7HTM     S4 1622   8.979   7.229   7.533 -0.3498 -0.3352 -0.2362
    8TAL    C35 1623   9.183   7.263   7.175  0.2583  0.4921 -0.0258
    8TAL    C36 1624   9.277   7.383   7.148 -0.0263 -0.1665  0.1547
    8TAL    C37 1625   9.367   7.369   7.019  0.8799 -0.2417 -0.0617
    8TAL    C38 1626   9.458   7.250   7.011 -0.9451  0.3613 -0.2952
    8TAL    C39 1627   9.582   7.248   7.100 -0.3940 -0.2678 -0.2037
    8TAL    C40 1628   9.650   7.116   7.113 -0.0567  0.3995  1.0380
    9HTM    C41 1629   9.247   7.151   7.478 -0.2563  0.0807  0.0813
    9HTM    C42 1630   9.257   7.120   7.611 -0.2158  0.0274  0.0656
    9HTM    C43 1631   9.391   7.088   7.652 -0.1658  0.2251  0.0589
    9HTM    C44 1632   9.483   7.094   7.552 -0.1682  0.4297  0.0695
    9HTM     S5 1633   9.407   7.142   7.395 -0.2343  0.3873  0.0891
   10TAL    C45 1634   9.407   7.047   7.800  0.3226 -0.4062  0.7479
   10TAL    C46 1635   9.373   7.143   7.914 -0.1509  0.4384 -0.9728
   10TAL    C47 1636   9.225   7.198   7.923 -0.2477  0.3598 -0.3454
   10TAL    C48 1637   9.218   7.332   7.988 -0.4925 -0.5867  0.2264
   10TAL    C49 1638   9.080   7.399   7.985  0.2335 -0.2920  0.4773
   10TAL    C50 1639   9.067   7.540   8.037 -0.2752  0.1099  0.2619
   11HTM    C51 1640   9.630   7.095   7.553 -0.1426 -0.3156  0.2790
   11HTM    C52 1641   9.714   7.131   7.452 -0.6100  0.2043  0.0763
   11HTM    C53 1642   9.852   7.145   7.492 -0.5709  0.9468 -0.2792
   11HTM    C54 1643   9.873   7.118   7.624 -0.0737  0.9932 -0.3476
   11HTM     S6 1644   9.719   7.073   7.708  0.3873  0.0955  0.0347
   12TAL    C55 1645   9.953   7.175   7.383 -0.6200  0.3630 -0.1402
   12TAL    C56 1646   9.970   7.054   7.295 -0.2752  0.1382  0.5606
   12TAL    C57 1647  10.068   7.076   7.182  0.1006 -0.0138  0.1584
   12TAL    C58 1648  10.098   6.944   7.114 -0.1518  0.5086  0.2414
   12TAL    C59 1649  10.211   6.946   7.029 -0.3187  0.4386 -0.1006
   12TAL    C60 1650  10.229   6.822   6.949 -0.0318 -0.0480 -0.5652
   13HTM    C61 1651   9.988   7.114   7.704 -0.0593  0.1102  0.4322
   13HTM    C62 1652  10.027   7.017   7.791  0.0966  0.0162  0.2570
   13HTM    C63 1653  10.152   7.045   7.857  0.2133 -0.0536  0.0675
   13HTM    C64 1654  10.208   7.164   7.820  0.1465 -0.0128  0.0974
   13HTM     S7 1655  10.106   7.250   7.699 -0.0708  0.1179  0.3704
   14TAL    C65 1656  10.218   6.948   7.954 -0.0373 -0.3576 -0.1019
   14TAL    C66 1657  10.263   6.806   7.909 -1.1688 -0.4212 -0.0867
   14TAL    C67 1658  10.313   6.728   8.022 -0.2453  0.7586 -0.6653
   14TAL    C68 1659  10.362   6.580   7.996  0.3781 -0.1521  0.2609
   14TAL    C69 1660  10.390   6.515   8.131 -0.4971 -0.1230 -0.5652
   14TAL    C70 1661  10.400   6.361   8.142 -0.0696  0.5865  0.4046
   15HTM    C71 1662  10.321   7.242   7.862 -0.3878  0.0661  0.3370
   15HTM    C72 1663  10.341   7.374   7.831 -0.2612  0.0350  0.2890
   15HTM    C73 1664  10.465   7.427   7.883 -0.0775 -0.1395  0.0346
   15HTM    C74 1665  10.538   7.336   7.953 -0.0642 -0.2423 -0.1117
   15HTM     S8 1666  10.457   7.175   7.959 -0.2841 -0.1251  0.0617
   16TAL    C75 1667  10.509   7.575   7.853 -0.1511  0.0334 -0.2042
   16TAL    C76 1668  10.403   7.673   7.808  0.5518 -0.2323  0.2809
   16TAL    C77 1669  10.460   7.814   7.829 -0.1613  0.2121 -0.1859
   16TAL    C78 1670  10.392   7.928   7.758  0.4873  0.1985  0.5143
   16TAL    C79 1671  10.234   7.938   7.763 -0.6439  0.2800 -0.0659
   16TAL    C80 1672  10.175   8.072   7.717  0.3880  0.2098 -0.5774
   17HTM    C81 1673  10.666   7.350   8.025  0.1523  0.1352 -0.2178
   17HTM    C82 1674  10.701   7.442   8.119 -0.1824  0.0129  0.0305
   17HTM    C83 1675  10.824   7.411   8.187 -0.4057 -0.0572  0.4053
   17HTM    C84 1676  10.883   7.295   8.145 -0.2412  0.0116  0.4421
   17HTM     S9 1677  10.786   7.216   8.015  0.2119  0.1718  0.0035
   18TAL    C85 1678  10.883   7.500   8.293 -0.2018  0.6253 -0.1342
   18TAL    C86 1679  10.925   7.640   8.242  0.2988  0.5420 -0.1644
   18TAL    C87 1680  10.971   7.736   8.356  0.0578 -0.6173 -1.0820
   18TAL    C88 1681  11.113   7.706   8.393 -0.2052 -0.2639 -0.2157
   18TAL    C89 1682  11.137   7.783   8.520 -0.0988 -0.3045  1.0424
   18TAL    C90 1683  11.279   7.769   8.567  0.3527 -0.1899  0.0846
   19HTM    C91 1684  11.010   7.233   8.181 -0.3530  0.1616  0.1245
   19HTM    C92 1685  11.059   7.120   8.123 -0.3210  0.2761 -0.0710
   19HTM    C93 1686  11.197   7.094   8.154 -0.2260  0.4256 -0.3629
   19HTM    C94 1687  11.253   7.187   8.237 -0.1855  0.4252 -0.3893
   19HTM    S10 1688  11.135   7.316   8.281 -0.2649  0.2346 -0.0467
   20TAL    C95 1689  11.287   6.981   8.101 -0.1260  0.1815  0.5747
   20TAL    C96 1690  11.234   6.877   7.997 -0.4805  0.2044 -0.0369
   20TAL    C97 1691  11.236   6.923   7.851 -0.6758  0.0420  0.1492
   20TAL    C98 1692  11.175   7.057   7.801 -0.8128  0.2085 -0.2471
   20TAL    C99 1693  11.233   7.105   7.669  0.2874 -0.0214 -0.2141
   20TAL   C100 1694  11.166   7.227   7.611 -0.1668 -0.2306 -0.1731
   21HTM   C101 1695  11.386   7.206   8.297  0.3393  0.6498 -0.9207
   21HTM   C102 1696  11.443   7.323   8.337  0.6604  0.6759 -1.4400
   21HTM   C103 1697  11.584   7.312   8.366  0.5331  0.3116 -0.9542
   21HTM   C104 1698  11.634   7.186   8.348  0.1150  0.0078 -0.0649
   21HTM    S11 1699  11.506   7.071   8.292 -0.1525  0.1592  0.2310
   22TAL   C105 1700  11.659   7.437   8.394 -0.1368 -0.9333  0.2922
   22TAL   C106 1701  11.580   7.551   8.470 -0.0990 -0.3482  0.2349
   22TAL   C107 1702  11.635   7.694   8.484 -0.5988  0.4621  0.5842
   22TAL   C108 1703  11.647   7.779   8.359 -0.1291 -0.0277  0.2313
   22TAL   C109 1704  11.522   7.813   8.274  0.7125  0.7957  0.0747
   22TAL   C110 1705  11.481   7.729   8.159  0.2412  0.2905  0.3293
   23HTM   C111 1706  11.772   7.135   8.363 -0.0255 -0.0509  0.1558
   23HTM   C112 1707  11.814   7.006   8.349  0.0808 -0.0043  0.0386
   23HTM   C113 1708  11.955   6.988   8.367  0.1166  0.1192 -0.1245
   23HTM   C114 1709  12.022   7.104   8.395  0.0378  0.1664 -0.1311
   23HTM    S12 1710  11.910   7.245   8.401 -0.0889  0.0576  0.0694
   24TAL   C115 1711  12.019   6.847   8.370  0.3273  0.3403  0.2268
   24TAL   C116 1712  11.954   6.754   8.474 -0.0851  0.1434  0.3788
   24TAL   C117 1713  12.063   6.656   8.516  0.4814  0.0822 -0.6146
   24TAL   C118 1714  12.189   6.711   8.586 -0.0103 -0.6950 -0.6315
   24TAL   C119 1715  12.271   6.590   8.629  0.2131  0.3772 -0.4518
   24TAL   C120 1716  12.372   6.634   8.727  0.0373  0.0111 -0.0453
   25HTM   C121 1717  12.163   7.126   8.412  0.0936 -0.4074 -0.7024
   25HTM   C122 1718  12.254   7.066   8.495 -0.0719 -0.2511 -0.4067
   25HTM   C123 1719  12.381   7.132   8.500 -0.3029  0.1559  0.2613
   25HTM   C124 1720  12.389   7.243   8.421 -0.3135  0.3098  0.4761
   25HTM    S13 1721  12.234   7.272   8.333 -0.0307 -0.0501 -0.1548
   26TAL   C125 1722  12.487   7.077   8.596 -0.6812  0.1991 -1.1846
   26TAL   C126 1723  12.481   6.967   8.702  0.2302 -0.6660  0.0619
   26TAL   C127 1724  12.399   6.996   8.827  0.6839  0.2480 -0.4160
   26TAL   C128 1725  12.456   7.111   8.917  0.1528 -0.1146  0.4045
   26TAL   C129 1726  12.387   7.128   9.055 -0.0935 -0.7291  0.2097
   26TAL   C130 1727  12.450   7.255   9.119  0.0166  0.1946 -0.7776
   27HTM   C131 1728  12.503   7.332   8.404  0.3948 -0.3433 -0.0811
   27HTM   C132 1729  12.488   7.465   8.374  0.4190 -0.3722 -0.2232
   27HTM   C133 1730  12.612   7.539   8.378  0.3940 -0.3395 -0.0525
   27HTM   C134 1731  12.720   7.463   8.411  0.3503 -0.2856  0.2195
   27HTM    S14 1732  12.675   7.291   8.439  0.3378 -0.2721  0.2818
   28TAL   C135 1733  12.631   7.681   8.335  0.5691  0.4425  0.0692
   28TAL   C136 1734  12.518   7.754   8.257 -0.5521 -0.2058  0.2277
   28TAL   C137 1735  12.577   7.893   8.220  0.1175 -0.0390  0.5292
   28TAL   C138 1736  12.478   7.996   8.165  0.2575  0.2402 -0.1695
   28TAL   C139 1737  12.369   8.033   8.257 -0.4241  0.4304 -0.0926
   28TAL   C140 1738  12.251   8.075   8.175  0.3010  0.0630  0.3855
   29HTM   C141 1739  12.859   7.491   8.438 -0.1622  0.2983  0.2190
   29HTM   C142 1740  12.947   7.398   8.484 -0.2584  0.2005  0.2055
   29HTM   C143 1741  13.080   7.449   8.507 -0.1082 -0.0219 -0.1454
   29HTM   C144 1742  13.093   7.582   8.479  0.1020 -0.0938 -0.3976
   29HTM    S15 1743  12.937   7.653   8.421  0.1276  0.1153 -0.2124
   30TAL   C145 1744  13.193   7.361   8.555 -0.1465  0.0445  0.0127
   30TAL   C146 1745  13.217   7.384   8.704  0.0375 -0.5141 -0.1998
   30TAL   C147 1746  13.354   7.339   8.762  0.0850 -0.0978 -0.3565
   30TAL   C148 1747  13.481   7.417   8.710  0.2503 -0.4428 -0.7398
   30TAL   C149 1748  13.596   7.347   8.775 -0.2900  0.1557 -0.2139
   30TAL   C150 1749  13.729   7.412   8.744 -0.1216 -1.1230  0.0436
   31HTM   C151 1750  13.191   7.685   8.507  0.0377  0.1331 -0.0216
   31HTM   C152 1751  13.180   7.801   8.578 -0.0489  0.2682 -0.2518
   31HTM   C153 1752  13.307   7.866   8.602 -0.0913  0.3815 -0.3343
   31HTM   C154 1753  13.413   7.799   8.548 -0.0376  0.3326 -0.1678
   31HTM    S16 1754  13.362   7.649   8.463  0.0722  0.1378  0.1102
   32TAL   C155 1755  13.309   8.001   8.663 -0.0525 -0.2670  0.2585
   32TAL   C156 1756  13.182   8.084   8.706 -0.0491  0.9080  0.1574
   32TAL   C157 1757  13.085   8.106   8.593 -0.3832  0.3264  0.6347
   32TAL   C158 1758  12.951   8.163   8.642  0.0570 -0.2212 -0.2637
   32TAL   C159 1759  12.960   8.306   8.705  0.7686  0.0498 -0.3936
   32TAL   C160 1760  12.834   8.340   8.783  0.2658  0.2106  0.0142
   33HTM   C161 1761  13.552   7.847   8.542 -0.3053 -0.2520  0.2766
   33HTM   C162 1762  13.589   7.967   8.490 -0.6964 -0.2437  0.0134
   33HTM   C163 1763  13.732   7.985   8.481 -0.7539  0.0713 -0.3276
   33HTM   C164 1764  13.803   7.878   8.527 -0.4069  0.3031 -0.3249
   33HTM    S17 1765  13.695   7.746   8.586  0.0229  0.1400  0.1120
   34TAL   C165 1766  13.792   8.115   8.432  0.2433  1.0160 -0.4851
   34TAL   C166 1767  13.807   8.221   8.538  0.3217  0.2141 -0.1291
   34TAL   C167 1768  13.911   8.324   8.492  0.3124  0.9405  0.1095
   34TAL   C168 1769  14.047   8.301   8.428 -0.2968  0.5114  0.3370
   34TAL   C169 1770  14.126   8.425   8.379 -0.4704 -0.6639  0.5078
   34TAL   C170 1771  14.281   8.404   8.378 -0.1724  0.5443  0.1728
   35HTM   C171 1772  13.945   7.858   8.535 -0.2118 -0.4880 -0.0102
   35HTM   C172 1773  14.041   7.941   8.486 -0.5047 -0.5207 -0.6456
   35HTM   C173 1774  14.175   7.892   8.504 -0.3531 -0.1371 -0.7076
   35HTM   C174 1775  14.181   7.771   8.568  0.0554  0.1877 -0.1204
   35HTM    S18 1776  14.016   7.710   8.610  0.2819  0.0332  0.5624
   36TAL   C175 1777  14.293   7.988   8.467  0.1611  0.4652 -0.0480
   36TAL   C176 1778  14.373   8.061   8.584 -0.2301  0.2172 -0.3905
   36TAL   C177 1779  14.485   8.152   8.543 -0.8566 -0.1079  0.3066
   36TAL   C178 1780  14.602   8.090   8.469  0.6986  0.5025  0.2470
   36TAL   C179 1781  14.691   8.205   8.444 -0.6823  0.3530 -0.0240
   36TAL   C180 1782  14.773   8.175   8.321  0.1892 -0.8888  0.1373
   37HTM   C181 1783  14.300   7.681   8.580 -0.1793  0.0606 -0.3618
   37HTM   C182 1784  14.433   7.710   8.571 -0.1655  0.1402  0.0796
   37HTM   C183 1785  14.516   7.593   8.556 -0.0300  0.1788  0.5155
   37HTM   C184 1786  14.446   7.476   8.554  0.0587  0.1283  0.4066
   37HTM    S19 1787  14.269   7.504   8.570 -0.0220  0.0276 -0.2601
   38TAL   C185 1788  14.670   7.610   8.564  0.0429 -0.0465  0.2342
   38TAL   C186 1789  14.729   7.743   8.516 -0.8071  0.8344 -0.3552
   38TAL   C187 1790  14.868   7.737   8.452  0.2892  0.4838 -0.2842
   38TAL   C188 1791  14.983   7.679   8.545  0.0482  1.0122 -0.2786
   38TAL   C189 1792  15.130   7.679   8.494  0.5853  0.1773  0.0006
   38TAL   C190 1793  15.237   7.724   8.593 -0.0100  0.6711  0.5250
   39HTM   C191 1794  14.500   7.344   8.522  0.1710  0.0636  0.1794
   39HTM   C192 1795  14.461   7.224   8.572  0.2501  0.0484  0.2031
   39HTM   C193 1796  14.533   7.112   8.517  0.1960  0.0687  0.0901
   39HTM   C194 1797  14.627   7.147   8.425  0.0755  0.0995 -0.0205
   39HTM    S20 1798  14.631   7.326   8.400  0.0208  0.1053  0.0107
   40TAL   C195 1799  14.501   6.968   8.560 -0.2642 -0.0689  0.1095
   40TAL   C196 1800  14.358   6.933   8.596  0.0187 -0.2511 -0.3974
   40TAL   C197 1801  14.317   6.789   8.579  0.1601  0.2433 -0.0906
   40TAL   C198 1802  14.164   6.787   8.581 -0.8582  0.7120  0.1873
   40TAL   C199 1803  14.116   6.643   8.597  0.2286  0.2374  0.1754
   40TAL   C200 1804  13.968   6.619   8.604 -0.2154 -0.0242  0.0405
   41HTM   C201 1805  14.713   7.067   8.346 -0.2953  0.4719  0.1808
   41HTM   C202 1806  14.724   7.093   8.213 -0.3743  0.5608  0.1907
   41HTM   C203 1807  14.826   7.014   8.147 -0.4175  0.6003  0.0777
   41HTM   C204 1808  14.892   6.929   8.230 -0.3713  0.5418 -0.0195
   41HTM    S21 1809  14.831   6.941   8.400 -0.2692  0.4311  0.0252
   42TAL   C205 1810  14.845   7.018   7.994  0.1491  0.0883  0.3582
   42TAL   C206 1811  14.937   7.128   7.946 -0.1209  0.3972  0.5830
   42TAL   C207 1812  14.952   7.110   7.792  0.2302  0.0483 -0.0597
   42TAL   C208 1813  15.080   7.149   7.726 -0.4279  0.8088 -0.0844
   42TAL   C209 1814  15.074   7.131   7.576 -0.0815  0.3521  0.0134
   42TAL   C210 1815  15.204   7.183   7.515 -0.2836  0.6347 -0.0313
   43HTM   C211 1816  14.987   6.824   8.204  0.1023 -0.4338 -0.4804
   43HTM   C212 1817  15.097   6.833   8.124  0.3250 -0.4838 -0.1817
   43HTM   C213 1818  15.177   6.713   8.122  0.3035 -0.5038  0.0715
   43HTM   C214 1819  15.127   6.612   8.200  0.0642 -0.4693 -0.0341
   43HTM    S22 1820  14.975   6.662   8.283 -0.1541 -0.4080 -0.4643
   44TAL   C215 1821  15.304   6.716   8.040 -0.4955  0.4967 -0.3510
   44TAL   C216 1822  15.294   6.764   7.897 -0.3763  0.4385 -0.3453
   44TAL   C217 1823  15.432   6.764   7.822 -0.1574  0.8984  0.0970
   44TAL   C218 1824  15.426   6.810   7.672  0.1377  0.2677 -0.1955
   44TAL   C219 1825  15.563   6.836   7.614  0.6030  0.3480  0.6945
   44TAL   C220 1826  15.644   6.711   7.568  0.1420  0.2898 -0.0364
   45HTM   C221 1827  15.160   6.475   8.215 -0.2924 -0.1834  0.4735
   45HTM   C222 1828  15.097   6.388   8.298 -0.2279 -0.3946  0.3028
   45HTM   C223 1829  15.145   6.252   8.288 -0.0608 -0.3207  0.1068
   45HTM   C224 1830  15.245   6.236   8.197  0.0016 -0.0537  0.1283
   45HTM    S23 1831  15.286   6.392   8.116 -0.1465  0.1271  0.4001
   46TAL   C225 1832  15.083   6.138   8.372 -0.5305 -0.3441  1.1531
   46TAL   C226 1833  14.942   6.162   8.414  0.2635  0.3707  0.3204
   46TAL   C227 1834  14.862   6.047   8.467  0.5015 -0.7381  0.9663
   46TAL   C228 1835  14.717   6.082   8.497  0.1305  0.7726 -0.1331
   46TAL   C229 1836  14.651   5.950   8.543 -0.3339  0.3032  0.4465
   46TAL   C230 1837  14.506   5.980   8.557  0.2666 -0.4638  0.0156
   47HTM   C231 1838  15.311   6.116   8.155 -0.0333 -0.1888  0.3418
   47HTM   C232 1839  15.438   6.104   8.108 -0.0739 -0.1628  0.2255
   47HTM   C233 1840  15.470   5.972   8.059 -0.2098 -0.0567 -0.1531
   47HTM   C234 1841  15.367   5.883   8.069 -0.2733 -0.0023 -0.3262
   47HTM    S24 1842  15.220   5.960   8.141 -0.1653 -0.0810 -0.0210
   48TAL   C235 1843  15.609   5.943   8.003 -0.4519 -0.7218  0.1709
   48TAL   C236 1844  15.659   5.805   7.970 -1.0301  0.1408  0.3143
   48TAL   C237 1845  15.613   5.765   7.831 -0.0814  0.2024 -0.6154
   48TAL   C238 1846  15.646   5.620   7.810 -0.2429 -0.0727 -0.6063
   48TAL   C239 1847  15.614   5.579   7.670  0.1235 -0.5513  0.0780
   48TAL   C240 1848  15.684   5.457   7.613 -0.3225  0.3790 -0.1681
    1HTM     C1 1849   3.190   7.692   3.196  0.2014 -0.2514 -0.0860
    1HTM     C2 1850   3.179   7.557   3.198  0.3259 -0.2639 -0.1847
    1HTM     C3 1851   3.304   7.488   3.181  0.3321 -0.1409 -0.6496
    1HTM     C4 1852   3.411   7.571   3.166  0.2122 -0.0347 -0.9057
    1HTM     S1 1853   3.361   7.744   3.171  0.0811 -0.0823 -0.5767
    2TAL     C5 1854   3.315   7.338   3.183  0.4883  0.3331 -0.4135
    2TAL     C6 1855   3.198   7.243   3.214 -0.1030  0.3047 -0.4747
    2TAL     C7 1856   3.088   7.236   3.109  0.0854  0.3158 -0.0999
    2TAL     C8 1857   2.961   7.151   3.149  0.2923 -0.1556  1.1423
    2TAL     C9 1858   2.971   7.003   3.182  0.5961  0.1291 -0.5796
    2TAL    C10 1859   2.828   6.946   3.203 -0.2924  0.5876  0.1927
    3HTM    C11 1860   3.552   7.552   3.155 -0.1885 -0.0603  0.1831
    3HTM    C12 1861   3.653   7.627   3.207 -0.2459  0.1962 -0.0758
    3HTM    C13 1862   3.784   7.583   3.166 -0.2315  0.4404 -0.2962
    3HTM    C14 1863   3.783   7.474   3.084 -0.1631  0.3704 -0.2053
    3HTM     S2 1864   3.614   7.418   3.051 -0.1111 -0.0125  0.1686
    4TAL    C15 1865   3.913   7.661   3.214 -0.2962 -0.4863 -0.2691
    4TAL    C16 1866   3.902   7.774   3.312  0.5522  0.2338 -0.2952
    4TAL    C17 1867   4.028   7.830   3.374 -0.2715 -0.3980 -0.1864
    4TAL    C18 1868   3.987   7.906   3.498 -0.4226  0.4997  0.5034
    4TAL    C19 1869   4.107   7.926   3.587 -0.3100  0.0397  0.4542
    4TAL    C20 1870   4.080   7.996   3.715  0.5106  0.4865 -0.0860
    5HTM    C21 1871   3.892   7.411   3.011  0.1164 -0.1753  0.5807
    5HTM    C22 1872   3.886   7.306   2.924  0.0799 -0.5715  1.0556
    5HTM    C23 1873   4.014   7.270   2.869 -0.0091 -0.5124  0.8070
    5HTM    C24 1874   4.117   7.346   2.914 -0.0406 -0.0709  0.1428
    5HTM     S3 1875   4.061   7.472   3.031  0.0406  0.3073 -0.2232
    6TAL    C25 1876   4.021   7.176   2.749 -0.4507  0.2355 -0.2855
    6TAL    C26 1877   4.069   7.029   2.769  0.3141  0.3345  0.6703
    6TAL    C27 1878   4.147   6.974   2.647  1.0743 -0.0413  0.3083
    6TAL    C28 1879   4.269   6.914   2.685  0.3051  0.0542  0.3071
    6TAL    C29 1880   4.364   6.876   2.571  0.1654 -0.1497  0.2326
    6TAL    C30 1881   4.438   6.996   2.496  0.0584  0.5648 -0.4661
    7HTM    C31 1882   4.257   7.344   2.882 -0.0296  0.0318  0.1033
    7HTM    C32 1883   4.329   7.449   2.834 -0.1485  0.0868  0.0434
    7HTM    C33 1884   4.465   7.415   2.801 -0.1421  0.1957 -0.0434
    7HTM    C34 1885   4.497   7.285   2.825 -0.0189  0.2240 -0.0498
    7HTM     S4 1886   4.356   7.193   2.890  0.1000  0.1147  0.0542
    8TAL    C35 1887   4.557   7.524   2.738  0.1361  0.4457 -0.2418
    8TAL    C36 1888   4.573   7.653   2.812 -0.4690 -0.0886 -0.2708
    8TAL    C37 1889   4.673   7.755   2.762 -0.4433 -0.2549  0.1333
    8TAL    C38 1890   4.654   7.901   2.807  0.5012 -0.6329  0.4645
    8TAL    C39 1891   4.764   7.992   2.760  0.1640  0.1137 -0.2393
    8TAL    C40 1892   4.732   8.141   2.795 -0.4883 -0.3670 -0.4666
    9HTM    C41 1893   4.616   7.215   2.781  0.0124  0.3438  0.3399
    9HTM    C42 1894   4.674   7.235   2.660 -0.3419  0.2489  0.1509
    9HTM    C43 1895   4.809   7.185   2.651 -0.4859 -0.0596 -0.3140
    9HTM    C44 1896   4.853   7.125   2.766 -0.2415 -0.1998 -0.4793
    9HTM     S5 1897   4.727   7.129   2.895  0.1929  0.0489 -0.0574
   10TAL    C45 1898   4.897   7.219   2.536 -0.3120 -0.5007 -0.3781
   10TAL    C46 1899   4.876   7.350   2.472  0.5488 -0.4342  0.4763
   10TAL    C47 1900   4.933   7.469   2.553 -0.5078  0.5984  0.0588
   10TAL    C48 1901   4.892   7.597   2.488 -0.2200 -0.3805 -0.5536
   10TAL    C49 1902   4.964   7.715   2.546  0.0496 -0.5936 -0.3212
   10TAL    C50 1903   4.912   7.839   2.465 -0.2514 -0.1524 -0.1772
   11HTM    C51 1904   4.971   7.051   2.796  0.0893 -0.0758 -0.2776
   11HTM    C52 1905   5.087   7.115   2.827  0.2582 -0.0405 -0.9761
   11HTM    C53 1906   5.193   7.027   2.867  0.3605  0.0358 -1.0763
   11HTM    C54 1907   5.158   6.895   2.867  0.2699  0.0584 -0.4541
   11HTM     S6 1908   4.986   6.873   2.816  0.0463 -0.0153  0.3125
   12TAL    C55 1909   5.329   7.096   2.896 -0.2787  0.0832 -1.1070
   12TAL    C56 1910   5.337   7.251   2.925  0.6878 -0.0048  0.5701
   12TAL    C57 1911   5.481   7.276   2.977 -0.3442 -0.1990  0.5161
   12TAL    C58 1912   5.516   7.417   2.996  0.5134 -0.7061 -0.1996
   12TAL    C59 1913   5.662   7.452   3.020 -0.0746  0.4043  0.0325
   12TAL    C60 1914   5.696   7.593   3.051 -0.4660  0.3036 -0.1332
   13HTM    C61 1915   5.231   6.778   2.916  0.3447  0.5704  0.3617
   13HTM    C62 1916   5.194   6.684   3.008  0.7036  0.8397  0.7815
   13HTM    C63 1917   5.286   6.573   3.018  0.7012  0.8295  0.6915
   13HTM    C64 1918   5.393   6.583   2.933  0.3406  0.5528  0.2033
   13HTM     S7 1919   5.385   6.733   2.834 -0.0265  0.2809 -0.1840
   14TAL    C65 1920   5.236   6.452   3.093 -0.2205  0.0212  0.1659
   14TAL    C66 1921   5.147   6.364   3.017  0.3651 -0.2534  0.5253
   14TAL    C67 1922   5.085   6.256   3.095 -0.4290 -0.3452 -0.7905
   14TAL    C68 1923   4.948   6.213   3.029 -0.5970 -0.7518  0.2251
   14TAL    C69 1924   4.838   6.320   3.012 -0.1865  0.2170  0.7508
   14TAL    C70 1925   4.741   6.278   2.904 -0.2146  0.2479 -0.2218
   15HTM    C71 1926   5.517   6.507   2.920  0.1872  0.0663 -0.0598
   15HTM    C72 1927   5.640   6.549   2.882  0.1700 -0.2997 -0.5257
   15HTM    C73 1928   5.739   6.444   2.879 -0.0527 -0.5114 -0.4982
   15HTM    C74 1929   5.691   6.322   2.916 -0.2048 -0.3071 -0.0114
   15HTM     S8 1930   5.515   6.330   2.957 -0.0778  0.1725  0.4535
   16TAL    C75 1931   5.881   6.474   2.827  0.3221 -0.5657 -0.2292
   16TAL    C76 1932   5.967   6.556   2.918  0.3107 -0.1508  0.0654
   16TAL    C77 1933   6.125   6.548   2.888  0.1648  0.5294  0.1059
   16TAL    C78 1934   6.182   6.590   2.759  0.4264  0.0333  0.3153
   16TAL    C79 1935   6.201   6.479   2.658  0.2183  0.9057 -0.0404
   16TAL    C80 1936   6.265   6.521   2.525  0.4234 -0.1155 -0.4587
   17HTM    C81 1937   5.749   6.190   2.924  0.0396 -0.0600 -0.3976
   17HTM    C82 1938   5.686   6.073   2.894  0.0544 -0.0372 -0.5150
   17HTM    C83 1939   5.770   5.957   2.903 -0.0520 -0.0882 -0.1681
   17HTM    C84 1940   5.898   5.986   2.940 -0.1474 -0.1497  0.2133
   17HTM     S9 1941   5.922   6.163   2.966 -0.1100 -0.1476  0.1640
   18TAL    C85 1942   5.718   5.821   2.858 -0.1132 -0.2597  0.2654
   18TAL    C86 1943   5.599   5.817   2.756 -0.1113  0.1219  0.5650
   18TAL    C87 1944   5.599   5.891   2.625  0.3177  0.3204  0.2491
   18TAL    C88 1945   5.710   5.866   2.514 -0.0916  0.3177 -0.3905
   18TAL    C89 1946   5.729   5.719   2.471 -0.0137 -0.6700  0.0149
   18TAL    C90 1947   5.835   5.708   2.363  0.1089  0.2768  0.4789
   19HTM    C91 1948   6.008   5.896   2.978  0.3183  0.4221 -0.1183
   19HTM    C92 1949   5.992   5.784   3.054 -0.0730  0.1996 -0.5229
   19HTM    C93 1950   6.114   5.710   3.075 -0.2904 -0.1862 -0.6111
   19HTM    C94 1951   6.223   5.766   3.015 -0.0653 -0.2581 -0.2738
   19HTM    S10 1952   6.180   5.917   2.926  0.4431  0.1592  0.1849
   20TAL    C95 1953   6.100   5.588   3.169  0.3847 -0.7579  0.0133
   20TAL    C96 1954   6.057   5.460   3.099  0.3316  0.2514  0.0833
   20TAL    C97 1955   6.024   5.339   3.191 -0.3511  0.4563 -0.7058
   20TAL    C98 1956   5.976   5.212   3.119 -0.1591 -0.3380  0.4523
   20TAL    C99 1957   5.853   5.224   3.033  0.2933 -0.0533 -0.3980
   20TAL   C100 1958   5.829   5.101   2.946 -0.2129 -0.0728 -0.1907
   21HTM   C101 1959   6.361   5.722   3.031 -0.1161 -0.1049  0.0700
   21HTM   C102 1960   6.467   5.807   3.038 -0.0834 -0.1140 -0.2768
   21HTM   C103 1961   6.588   5.744   3.084 -0.0107 -0.0608 -0.3964
   21HTM   C104 1962   6.575   5.611   3.111  0.0122 -0.0109 -0.1408
   21HTM    S11 1963   6.406   5.555   3.081 -0.0573 -0.0276  0.2739
   22TAL   C105 1964   6.707   5.833   3.107  0.5123 -0.5166 -0.5564
   22TAL   C106 1965   6.694   5.946   3.210  0.4576  0.3743 -0.0147
   22TAL   C107 1966   6.816   6.039   3.232  0.1228  0.5186 -0.1401
   22TAL   C108 1967   6.947   5.978   3.265 -0.2139  0.4919 -0.3795
   22TAL   C109 1968   7.063   6.074   3.255 -0.2353  0.1281 -0.5112
   22TAL   C110 1969   7.194   6.002   3.299 -0.0151 -0.4144 -0.1161
   23HTM   C111 1970   6.659   5.517   3.178 -0.0866 -0.2686 -0.0730
   23HTM   C112 1971   6.661   5.481   3.310  0.1225 -0.1519 -0.0429
   23HTM   C113 1972   6.769   5.393   3.345  0.1562 -0.1514 -0.1458
   23HTM   C114 1973   6.851   5.362   3.240 -0.0271 -0.2674 -0.2547
   23HTM    S12 1974   6.796   5.442   3.088 -0.2579 -0.3874 -0.2351
   24TAL   C115 1975   6.785   5.330   3.483  0.2087  0.3481  0.2884
   24TAL   C116 1976   6.766   5.424   3.602  0.0349  0.4646 -0.6573
   24TAL   C117 1977   6.804   5.364   3.742 -0.1384  0.0200  0.0813
   24TAL   C118 1978   6.942   5.298   3.757 -0.6685  0.5705  0.1331
   24TAL   C119 1979   7.068   5.393   3.739  0.5185 -0.1739 -0.1473
   24TAL   C120 1980   7.193   5.309   3.762 -0.0770  0.2800 -0.2121
   25HTM   C121 1981   6.965   5.275   3.234 -0.0141 -0.0505  0.1005
   25HTM   C122 1982   6.982   5.157   3.168 -0.1438 -0.1478  0.2410
   25HTM   C123 1983   7.106   5.092   3.198 -0.1373 -0.1621  0.1837
   25HTM   C124 1984   7.184   5.159   3.286 -0.0032 -0.0759 -0.0007
   25HTM    S13 1985   7.106   5.313   3.340  0.1270  0.0313 -0.1166
   26TAL   C125 1986   7.138   4.960   3.132 -0.3037  0.5511 -0.4754
   26TAL   C126 1987   7.018   4.872   3.092 -0.0383  0.0066 -0.4984
   26TAL   C127 1988   7.048   4.731   3.048 -0.2858  0.3409  0.3384
   26TAL   C128 1989   6.951   4.616   3.071 -0.5047  0.0952 -0.2396
   26TAL   C129 1990   6.984   4.491   2.996  0.1063 -0.2716 -0.3603
   26TAL   C130 1991   6.908   4.375   3.065  0.4417 -0.2001 -0.5965
   27HTM   C131 1992   7.314   5.130   3.349 -0.3123 -0.0487 -0.6007
   27HTM   C132 1993   7.363   5.186   3.464 -0.5398  0.3924 -0.7198
   27HTM   C133 1994   7.493   5.138   3.502 -0.5553  0.6397 -0.3474
   27HTM   C134 1995   7.543   5.044   3.417 -0.3393  0.3868  0.0555
   27HTM    S14 1996   7.430   5.010   3.281 -0.0976 -0.1879 -0.0047
   28TAL   C135 1997   7.561   5.183   3.626 -0.2861  0.3797 -0.1213
   28TAL   C136 1998   7.508   5.128   3.754 -0.1231 -0.4103 -0.1945
   28TAL   C137 1999   7.583   5.153   3.892 -0.1315  0.5045  0.0490
   28TAL   C138 2000   7.727   5.121   3.899  0.4121  0.7659 -0.9027
   28TAL   C139 2001   7.830   5.218   3.854  0.8009 -0.1317  0.3482
   28TAL   C140 2002   7.965   5.155   3.845  0.5623 -0.4855 -0.0425
   29HTM   C141 2003   7.664   4.967   3.413 -0.0505  0.3119  0.2788
   29HTM   C142 2004   7.689   4.860   3.331 -0.1087  0.6800 -0.2266
   29HTM   C143 2005   7.814   4.795   3.358 -0.0265  0.6368 -0.7043
   29HTM   C144 2006   7.885   4.851   3.460  0.0939  0.2358 -0.5632
   29HTM    S15 2007   7.798   4.993   3.530  0.1132 -0.1211  0.1897
   30TAL   C145 2008   7.852   4.657   3.289  0.5780  0.3160 -0.8732
   30TAL   C146 2009   7.752   4.544   3.301 -0.5579 -0.0365 -0.2609
   30TAL   C147 2010   7.647   4.557   3.194  0.1543  0.3496 -0.7980
   30TAL   C148 2011   7.544   4.450   3.217  0.4304 -0.4034  0.0960
   30TAL   C149 2012   7.407   4.510   3.184 -0.1496  0.1749 -0.4823
   30TAL   C150 2013   7.293   4.411   3.184  0.1001 -0.2481  0.3892
   31HTM   C151 2014   8.015   4.833   3.524  0.0875 -0.0243 -0.0830
   31HTM   C152 2015   8.093   4.928   3.583 -0.0758  0.1440 -0.1384
   31HTM   C153 2016   8.217   4.877   3.635 -0.1149  0.3345  0.1458
   31HTM   C154 2017   8.234   4.743   3.616  0.0167  0.3113  0.4178
   31HTM    S16 2018   8.093   4.670   3.530  0.2034  0.0451  0.3357
   32TAL   C155 2019   8.308   4.972   3.708 -0.0906 -0.2104  0.1866
   32TAL   C156 2020   8.396   5.064   3.614  0.0254  0.3124  0.4414
   32TAL   C157 2021   8.536   5.095   3.661 -0.1939 -0.8286 -0.2055
   32TAL   C158 2022   8.559   5.243   3.632 -0.4078  0.5262  0.2277
   32TAL   C159 2023   8.702   5.284   3.662  0.0109 -0.5395  0.3924
   32TAL   C160 2024   8.729   5.427   3.624 -0.3731  0.4727  0.3995
   33HTM   C161 2025   8.331   4.654   3.676 -0.1380 -0.0174  0.5486
   33HTM   C162 2026   8.455   4.685   3.722 -0.2460  0.0439  0.7954
   33HTM   C163 2027   8.528   4.572   3.774 -0.1202  0.0029  0.5299
   33HTM   C164 2028   8.459   4.454   3.767  0.0837 -0.0896  0.0805
   33HTM    S17 2029   8.296   4.478   3.693  0.1332 -0.1327 -0.0429
   34TAL   C165 2030   8.659   4.589   3.853 -0.4466 -0.3685  0.3965
   34TAL   C166 2031   8.733   4.727   3.845  0.0640 -0.2014  0.5225
   34TAL   C167 2032   8.881   4.722   3.881 -0.1028  0.2903  0.4188
   34TAL   C168 2033   8.983   4.634   3.801  0.2181  0.6560  0.2191
   34TAL   C169 2034   9.110   4.643   3.883  0.0745 -0.2180 -0.4265
   34TAL   C170 2035   9.232   4.570   3.822 -0.1624 -0.2069  0.4893
   35HTM   C171 2036   8.484   4.316   3.801  0.2612  0.4255  0.1218
   35HTM   C172 2037   8.399   4.212   3.777  0.0582  0.5836  0.1463
   35HTM   C173 2038   8.454   4.083   3.812 -0.1440  0.4733  0.0619
   35HTM   C174 2039   8.580   4.090   3.864 -0.0949  0.2313 -0.0272
   35HTM    S18 2040   8.640   4.260   3.871  0.2129  0.1225 -0.0112
   36TAL   C175 2041   8.373   3.962   3.762 -0.4333 -0.1448  0.2472
   36TAL   C176 2042   8.383   3.924   3.615  0.7454  0.1619 -0.0320
   36TAL   C177 2043   8.516   3.892   3.540  0.1619 -0.2289 -0.2576
   36TAL   C178 2044   8.570   3.752   3.560  0.4651  0.2431  0.6761
   36TAL   C179 2045   8.719   3.746   3.516  0.1144 -0.2938 -0.0305
   36TAL   C180 2046   8.801   3.624   3.555 -0.2564 -0.7376  0.1340
   37HTM   C181 2047   8.672   3.988   3.923 -0.1810 -0.3077 -0.0618
   37HTM   C182 2048   8.655   3.854   3.905 -0.0648 -0.3276 -0.0223
   37HTM   C183 2049   8.758   3.774   3.966  0.0682 -0.2153 -0.0968
   37HTM   C184 2050   8.852   3.847   4.032  0.0540 -0.1095 -0.1931
   37HTM    S19 2051   8.819   4.024   4.021 -0.1309 -0.1442 -0.1971
   38TAL   C185 2052   8.773   3.626   3.926  0.6489 -0.6661 -0.0577
   38TAL   C186 2053   8.677   3.534   4.002  0.1369 -0.0998 -0.3656
   38TAL   C187 2054   8.712   3.383   4.000 -0.3208 -0.2425 -0.0904
   38TAL   C188 2055   8.856   3.348   4.065  0.4369  0.4442  1.0152
   38TAL   C189 2056   8.866   3.206   4.093  0.2250  0.0602  0.2654
   38TAL   C190 2057   9.009   3.187   4.162 -0.2555 -0.4071 -0.2265
   39HTM   C191 2058   8.973   3.802   4.100 -0.0778 -0.2448 -0.2087
   39HTM   C192 2059   9.098   3.852   4.080 -0.1040 -0.5044 -1.0765
   39HTM   C193 2060   9.202   3.773   4.141  0.1192 -0.5065 -1.4586
   39HTM   C194 2061   9.156   3.663   4.207  0.3161 -0.2481 -0.8822
   39HTM    S20 2062   8.976   3.651   4.197  0.2328  0.0197  0.1964
   40TAL   C195 2063   9.351   3.811   4.118  0.3651 -0.0006 -0.3382
   40TAL   C196 2064   9.402   3.841   3.980  0.3437 -0.2670 -0.1689
   40TAL   C197 2065   9.373   3.731   3.876  0.1945 -0.1212  0.3154
   40TAL   C198 2066   9.468   3.727   3.753  0.5436  0.6816  0.4255
   40TAL   C199 2067   9.450   3.600   3.671 -0.1438  0.1612 -0.4564
   40TAL   C200 2068   9.559   3.567   3.572 -0.1347  0.2144  0.1294
   41HTM   C201 2069   9.221   3.562   4.288  0.2639 -0.2460 -0.4689
   41HTM   C202 2070   9.150   3.468   4.357  0.3799 -0.7633 -1.0526
   41HTM   C203 2071   9.232   3.382   4.438  0.4086 -0.6502 -0.9623
   41HTM   C204 2072   9.365   3.411   4.432  0.3146 -0.0469 -0.3098
   41HTM    S21 2073   9.398   3.550   4.322  0.1814  0.4290  0.2458
   42TAL   C205 2074   9.169   3.265   4.519 -0.0852  0.6105 -0.1294
   42TAL   C206 2075   9.183   3.255   4.671 -0.3340  0.0329  0.0296
   42TAL   C207 2076   9.138   3.379   4.755  0.3597  1.1839  0.1092
   42TAL   C208 2077   9.212   3.408   4.887  0.0443 -0.3759  0.0902
   42TAL   C209 2078   9.358   3.438   4.902 -0.1950  0.3049  0.5188
   42TAL   C210 2079   9.399   3.563   4.825 -0.3679 -0.7893  0.0904
   43HTM   C211 2080   9.484   3.357   4.496  0.1733 -0.4792 -0.3418
   43HTM   C212 2081   9.590   3.425   4.550  0.3999 -0.4292 -0.8435
   43HTM   C213 2082   9.685   3.340   4.616  0.3237 -0.3016 -0.5674
   43HTM   C214 2083   9.653   3.208   4.613  0.0390 -0.2543  0.1439
   43HTM    S22 2084   9.498   3.180   4.525 -0.1564 -0.3682  0.5246
   44TAL   C215 2085   9.819   3.386   4.679 -0.1357  0.0298 -0.5859
   44TAL   C216 2086   9.883   3.516   4.634 -0.0014 -0.2397  0.7243
   44TAL   C217 2087   9.957   3.594   4.741 -0.1560 -0.1564  0.4714
   44TAL   C218 2088   9.893   3.632   4.870  0.7091  0.0966 -0.4124
   44TAL   C219 2089   9.767   3.721   4.864  0.0641  0.7100  0.9950
   44TAL   C220 2090   9.789   3.864   4.813  0.0362  0.1891  0.2952
   45HTM   C221 2091   9.720   3.093   4.668 -0.4018 -0.4281  0.1479
   45HTM   C222 2092   9.737   3.068   4.801 -0.2868 -0.5236  0.1154
   45HTM   C223 2093   9.820   2.954   4.828 -0.0100 -0.3588 -0.0358
   45HTM   C224 2094   9.867   2.892   4.716  0.0860 -0.1377 -0.1188
   45HTM    S23 2095   9.809   2.973   4.566 -0.1676 -0.1202 -0.0114
   46TAL   C225 2096   9.857   2.912   4.970  0.0078 -0.3563  0.6450
   46TAL   C226 2097   9.853   3.014   5.081  0.2616 -0.8185 -0.5352
   46TAL   C227 2098   9.975   3.103   5.095 -0.1176  0.6476  0.3805
   46TAL   C228 2099  10.002   3.212   4.992 -0.4878 -1.4763 -0.0984
   46TAL   C229 2100  10.128   3.289   5.018  0.1642  0.7459  0.4388
   46TAL   C230 2101  10.182   3.365   4.897  0.1686  0.4455 -0.3684
   47HTM   C231 2102   9.961   2.779   4.699  0.0974  0.2276  0.0868
   47HTM   C232 2103   9.960   2.663   4.770  0.0862  0.3718  0.3264
   47HTM   C233 2104  10.061   2.569   4.727 -0.0784  0.1806  0.3593
   47HTM   C234 2105  10.138   2.614   4.624 -0.1927 -0.1092  0.1453
   47HTM    S24 2106  10.090   2.780   4.573 -0.1006 -0.1636 -0.1171
   48TAL   C235 2107  10.083   2.430   4.781 -0.1846 -0.7563 -0.0081
   48TAL   C236 2108   9.959   2.347   4.820  0.5042 -0.3617 -0.1702
   48TAL   C237 2109   9.977   2.224   4.907  0.0410 -0.2694  0.1865
   48TAL   C238 2110  10.032   2.252   5.048 -0.1515 -0.2036 -0.2989
   48TAL   C239 2111  10.032   2.132   5.138  0.8101  0.4435 -0.4001
   48TAL   C240 2112  10.105   2.145   5.278 -0.5066  0.4321  0.3639
    1HTM     C1 2113   4.893   1.997   4.492  0.0949 -0.1715 -0.3788
    1HTM     C2 2114   4.996   2.086   4.499  0.1631 -0.2345 -0.5617
    1HTM     C3 2115   4.955   2.219   4.539  0.3328 -0.2410 -0.3643
    1HTM     C4 2116   4.821   2.230   4.562  0.3939 -0.1828 -0.0308
    1HTM     S1 2117   4.735   2.074   4.535  0.2411 -0.1151  0.0603
    2TAL     C5 2118   5.060   2.330   4.552  0.2437 -0.3134  0.8301
    2TAL     C6 2119   5.186   2.292   4.626  0.3110  0.6236 -0.4657
    2TAL     C7 2120   5.293   2.396   4.591 -0.2466 -0.3062 -0.3842
    2TAL     C8 2121   5.445   2.361   4.600  0.2058 -0.5916 -0.3860
    2TAL     C9 2122   5.486   2.357   4.746 -0.3276  0.3267 -0.8084
    2TAL    C10 2123   5.625   2.301   4.771  0.1841  0.1076  0.1541
    3HTM    C11 2124   4.738   2.346   4.590  0.2915  0.5113  0.3411
    3HTM    C12 2125   4.767   2.454   4.668  0.0713  0.8668 -0.0679
    3HTM    C13 2126   4.654   2.540   4.692 -0.1006  0.7375 -0.4084
    3HTM    C14 2127   4.539   2.497   4.632 -0.0119  0.2838 -0.2590
    3HTM     S2 2128   4.564   2.344   4.541  0.2982 -0.0181  0.3278
    4TAL    C15 2129   4.668   2.667   4.777  0.1082  0.5022  0.8784
    4TAL    C16 2130   4.661   2.802   4.707 -0.1128 -0.6667 -0.5939
    4TAL    C17 2131   4.684   2.925   4.794 -0.2230 -0.3945  0.1709
    4TAL    C18 2132   4.650   3.043   4.701 -0.5577 -0.3037 -0.3627
    4TAL    C19 2133   4.657   3.183   4.768  0.2342 -0.4065  0.2940
    4TAL    C20 2134   4.656   3.302   4.681 -0.1161 -0.2516  0.1130
    5HTM    C21 2135   4.402   2.534   4.642  0.3153  0.0467  0.0098
    5HTM    C22 2136   4.328   2.642   4.605  0.4101  0.0988 -0.0284
    5HTM    C23 2137   4.189   2.632   4.642  0.3746  0.1750 -0.1419
    5HTM    C24 2138   4.157   2.517   4.706  0.2532  0.1808 -0.1905
    5HTM     S3 2139   4.302   2.410   4.727  0.1734  0.0902 -0.0961
    6TAL    C25 2140   4.093   2.750   4.625  0.1571 -0.0998 -0.4513
    6TAL    C26 2141   4.047   2.780   4.486 -0.3783 -0.6869 -0.1458
    6TAL    C27 2142   4.136   2.802   4.370  0.0382  0.6265  0.0685
    6TAL    C28 2143   4.246   2.903   4.379 -0.2448 -0.6950 -0.1405
    6TAL    C29 2144   4.380   2.867   4.319 -0.1266 -0.5976 -0.4068
    6TAL    C30 2145   4.504   2.954   4.344  0.5747 -0.3739 -0.2621
    7HTM    C31 2146   4.035   2.469   4.759  0.1602  0.2030 -0.0473
    7HTM    C32 2147   4.014   2.337   4.785  0.4930  0.1937  0.1831
    7HTM    C33 2148   3.888   2.310   4.849  0.6365  0.0062  0.3841
    7HTM    C34 2149   3.813   2.421   4.873  0.4127 -0.1276  0.3065
    7HTM     S4 2150   3.896   2.570   4.815  0.0005 -0.0262 -0.0280
    8TAL    C35 2151   3.853   2.168   4.880  0.3938 -0.0741 -0.9481
    8TAL    C36 2152   3.901   2.054   4.791  0.3816 -0.0279 -0.7482
    8TAL    C37 2153   3.842   1.923   4.846  0.2705  0.1034  0.7554
    8TAL    C38 2154   3.872   1.805   4.746  0.1132  0.0705 -0.1521
    8TAL    C39 2155   3.848   1.667   4.809 -0.1606 -0.3369 -0.3635
    8TAL    C40 2156   3.858   1.540   4.729  0.2633 -0.3347  0.7594
    9HTM    C41 2157   3.684   2.437   4.933 -0.2458 -0.0644 -0.5902
    9HTM    C42 2158   3.623   2.364   5.030 -0.2630 -0.3903 -0.8440
    9HTM    C43 2159   3.492   2.412   5.065 -0.2288 -0.4451 -0.6363
    9HTM    C44 2160   3.453   2.522   4.994 -0.1854 -0.1611 -0.2247
    9HTM     S5 2161   3.580   2.573   4.877 -0.1843  0.2004 -0.0659
   10TAL    C45 2162   3.427   2.346   5.189  0.3250 -0.3116 -0.1214
   10TAL    C46 2163   3.326   2.231   5.162 -0.2868  0.1257 -0.6487
   10TAL    C47 2164   3.253   2.172   5.284 -0.0260 -1.0325 -0.0756
   10TAL    C48 2165   3.161   2.254   5.369  0.1074  0.6396 -0.0152
   10TAL    C49 2166   3.030   2.287   5.289 -0.0150 -0.1185  0.0993
   10TAL    C50 2167   2.944   2.396   5.355 -0.0663  0.1022  0.0098
   11HTM    C51 2168   3.333   2.601   4.992  0.4644 -0.2303  0.5058
   11HTM    C52 2169   3.249   2.631   4.890  0.5200 -0.5697  0.3572
   11HTM    C53 2170   3.129   2.699   4.932  0.4460 -0.5283  0.0811
   11HTM    C54 2171   3.121   2.720   5.066  0.3341 -0.1575  0.0189
   11HTM     S6 2172   3.267   2.655   5.151  0.3133  0.1708  0.3065
   12TAL    C55 2173   3.022   2.741   4.836 -0.0623  0.1645 -0.4506
   12TAL    C56 2174   2.988   2.643   4.731 -0.0682 -0.1967 -0.0796
   12TAL    C57 2175   2.911   2.700   4.609 -0.5420 -0.0552  0.1529
   12TAL    C58 2176   2.891   2.589   4.510  0.8468  0.7961 -0.3190
   12TAL    C59 2177   2.836   2.640   4.379  0.2845  0.4749 -0.0805
   12TAL    C60 2178   2.846   2.525   4.278  0.7262 -0.6098  0.7013
   13HTM    C61 2179   3.020   2.775   5.150  0.0357 -0.2902  0.1275
   13HTM    C62 2180   2.894   2.730   5.179 -0.0148 -0.2024  0.0467
   13HTM    C63 2181   2.822   2.815   5.270 -0.0741 -0.0672 -0.1256
   13HTM    C64 2182   2.892   2.925   5.310 -0.0689 -0.0520 -0.1764
   13HTM     S7 2183   3.056   2.930   5.236  0.0118 -0.2082 -0.0094
   14TAL    C65 2184   2.686   2.771   5.329 -0.1845 -0.2795  0.0585
   14TAL    C66 2185   2.635   2.625   5.326  0.6089  0.2044 -0.3280
   14TAL    C67 2186   2.496   2.622   5.386  0.4885 -0.1396  0.9379
   14TAL    C68 2187   2.419   2.494   5.351  0.4451 -0.1162 -0.7384
   14TAL    C69 2188   2.277   2.501   5.420  0.0732  0.1638  0.2127
   14TAL    C70 2189   2.180   2.391   5.390  0.5529  0.2829 -0.2044
   15HTM    C71 2190   2.853   3.029   5.405 -0.5743 -0.2586  0.0127
   15HTM    C72 2191   2.945   3.097   5.480 -0.3052 -0.4730 -0.1221
   15HTM    C73 2192   2.889   3.204   5.557  0.0765 -0.2753 -0.1178
   15HTM    C74 2193   2.754   3.219   5.541  0.0984  0.0902  0.0199
   15HTM     S8 2194   2.688   3.096   5.427 -0.3650  0.2136  0.1560
   16TAL    C75 2195   2.976   3.292   5.646 -0.1538 -0.0816  0.3619
   16TAL    C76 2196   3.089   3.380   5.575  0.0843 -0.1223 -0.4466
   16TAL    C77 2197   3.050   3.466   5.452  0.0897 -0.8552  0.2785
   16TAL    C78 2198   3.170   3.514   5.369  0.6167  0.6694  0.1815
   16TAL    C79 2199   3.132   3.622   5.268 -0.2236  0.2227 -0.1131
   16TAL    C80 2200   3.259   3.703   5.220  0.5889 -0.5017 -0.2620
   17HTM    C81 2201   2.667   3.305   5.617 -0.0903 -0.4008 -0.0068
   17HTM    C82 2202   2.577   3.266   5.711 -0.5322 -0.3052 -0.3872
   17HTM    C83 2203   2.527   3.374   5.792 -0.7795 -0.2487 -0.6125
   17HTM    C84 2204   2.579   3.495   5.760 -0.5264 -0.3014 -0.4045
   17HTM     S9 2205   2.696   3.483   5.623  0.0485 -0.4274  0.0966
   18TAL    C85 2206   2.428   3.353   5.908 -0.1626 -0.4768 -0.5110
   18TAL    C86 2207   2.366   3.216   5.931  0.3400 -0.6994 -0.5651
   18TAL    C87 2208   2.279   3.199   6.051  0.2596  0.1718 -0.1514
   18TAL    C88 2209   2.201   3.064   6.063  0.1458  0.6165 -0.1793
   18TAL    C89 2210   2.288   2.943   6.074  0.2525  0.3645  0.4495
   18TAL    C90 2211   2.210   2.817   6.118  0.2317  0.6506 -1.0088
   19HTM    C91 2212   2.568   3.631   5.813  0.0295 -0.0424  0.0449
   19HTM    C92 2213   2.454   3.692   5.855  0.0793 -0.2189  0.4413
   19HTM    C93 2214   2.474   3.828   5.900  0.0153 -0.1670  0.3133
   19HTM    C94 2215   2.603   3.869   5.892 -0.0834  0.0490 -0.1808
   19HTM    S10 2216   2.711   3.740   5.827 -0.1031  0.2048 -0.5256
   20TAL    C95 2217   2.359   3.919   5.939  0.0293  1.1444  0.0006
   20TAL    C96 2218   2.210   3.874   5.935 -0.5745 -0.1741  0.0593
   20TAL    C97 2219   2.180   3.760   6.023 -0.2429 -0.7425  0.4274
   20TAL    C98 2220   2.055   3.693   5.981  0.0671  0.0138  0.1332
   20TAL    C99 2221   2.041   3.556   6.038  0.0293 -0.5932  0.0267
   20TAL   C100 2222   1.911   3.481   5.984  0.0903  0.1997  0.0688
   21HTM   C101 2223   2.667   3.995   5.927 -0.3509  0.1359  0.1311
   21HTM   C102 2224   2.624   4.124   5.943 -0.1673  0.1485  0.5565
   21HTM   C103 2225   2.731   4.220   5.954 -0.0265  0.0324  0.2344
   21HTM   C104 2226   2.855   4.165   5.948 -0.1027 -0.0685 -0.4367
   21HTM    S11 2227   2.847   3.986   5.926 -0.3602 -0.0248 -0.7161
   22TAL   C105 2228   2.709   4.366   5.982  0.5680  0.5262 -0.3893
   22TAL   C106 2229   2.562   4.423   5.972 -0.4381  0.2356 -0.4037
   22TAL   C107 2230   2.537   4.577   5.987 -0.6252  0.3735  0.3724
   22TAL   C108 2231   2.600   4.663   5.882  0.4613 -0.1612 -0.0826
   22TAL   C109 2232   2.549   4.805   5.866 -0.3298 -0.1553  0.5085
   22TAL   C110 2233   2.579   4.855   5.725 -0.2554 -0.1854 -0.0387
   23HTM   C111 2234   2.992   4.214   5.963 -0.0355  0.3629  0.2299
   23HTM   C112 2235   3.107   4.153   5.923 -0.2156  0.3889 -0.3397
   23HTM   C113 2236   3.227   4.228   5.952 -0.0777  0.3724 -0.8430
   23HTM   C114 2237   3.202   4.347   6.015  0.2076  0.3339 -0.6575
   23HTM    S12 2238   3.026   4.373   6.041  0.3251  0.3155  0.1739
   24TAL   C115 2239   3.361   4.169   5.931 -0.3954  0.3187 -0.3644
   24TAL   C116 2240   3.402   4.133   5.792  0.1160 -0.2066  0.8687
   24TAL   C117 2241   3.546   4.092   5.778 -0.2822 -0.1069 -0.0832
   24TAL   C118 2242   3.658   4.177   5.852  0.2493  0.6158 -0.0028
   24TAL   C119 2243   3.799   4.123   5.833  0.2550  0.2599 -0.0736
   24TAL   C120 2244   3.910   4.213   5.881  0.3560 -0.5252 -0.6460
   25HTM   C121 2245   3.307   4.436   6.067  0.0588  0.1554  0.4829
   25HTM   C122 2246   3.390   4.415   6.173 -0.1596  0.8249  0.7889
   25HTM   C123 2247   3.476   4.527   6.202 -0.3375  1.0710  0.3667
   25HTM   C124 2248   3.459   4.633   6.117 -0.2545  0.5896 -0.2611
   25HTM    S13 2249   3.331   4.599   5.995  0.0570 -0.2187 -0.3688
   26TAL   C125 2250   3.570   4.526   6.319 -0.0991  0.1201 -0.8616
   26TAL   C126 2251   3.507   4.501   6.460  0.5507  0.1067  0.2200
   26TAL   C127 2252   3.374   4.570   6.506  0.2534 -0.1657  0.3537
   26TAL   C128 2253   3.377   4.723   6.485  0.3560 -0.0933  0.0891
   26TAL   C129 2254   3.249   4.786   6.556  0.2967  0.1513 -0.5051
   26TAL   C130 2255   3.232   4.921   6.489 -0.3405 -0.3868 -0.2533
   27HTM   C131 2256   3.514   4.767   6.125  0.0643 -0.2212  0.1759
   27HTM   C132 2257   3.641   4.811   6.150  0.1069 -0.0350 -0.3667
   27HTM   C133 2258   3.648   4.951   6.183  0.1101  0.1068 -0.9537
   27HTM   C134 2259   3.527   5.014   6.184  0.0699  0.0286 -0.8585
   27HTM    S14 2260   3.393   4.900   6.142  0.0247 -0.2324 -0.0139
   28TAL   C135 2261   3.782   5.006   6.232 -0.4751 -0.3731 -0.7062
   28TAL   C136 2262   3.895   5.045   6.133 -0.3331 -0.5190 -0.2209
   28TAL   C137 2263   4.029   5.080   6.202  0.2167 -0.2898  0.0013
   28TAL   C138 2264   4.143   5.118   6.110 -0.1926  0.1559  0.2564
   28TAL   C139 2265   4.275   5.112   6.187 -0.1513 -0.2796 -0.1668
   28TAL   C140 2266   4.400   5.124   6.105  0.4428  0.2334 -0.4191
   29HTM   C141 2267   3.489   5.152   6.204  0.0333 -0.1277  0.3900
   29HTM   C142 2268   3.401   5.201   6.295 -0.0693 -0.1485  0.3021
   29HTM   C143 2269   3.400   5.344   6.304 -0.3580 -0.1335  0.0570
   29HTM   C144 2270   3.489   5.405   6.220 -0.4757 -0.1007 -0.0426
   29HTM    S15 2271   3.580   5.284   6.121 -0.2289 -0.0865  0.1678
   30TAL   C145 2272   3.320   5.418   6.409  0.0661  1.2171  0.4566
   30TAL   C146 2273   3.307   5.354   6.548  0.5318 -0.1072 -0.0455
   30TAL   C147 2274   3.434   5.316   6.620 -0.8117  0.4391 -0.1449
   30TAL   C148 2275   3.403   5.269   6.766  0.7432 -0.0870  0.3774
   30TAL   C149 2276   3.514   5.238   6.867 -0.3334 -0.0396  0.2112
   30TAL   C150 2277   3.463   5.189   6.999  0.1456 -0.2559 -0.6271
   31HTM   C151 2278   3.541   5.544   6.218  0.3825  0.0244  0.2515
   31HTM   C152 2279   3.666   5.579   6.261  0.2576  0.2234  0.4520
   31HTM   C153 2280   3.686   5.722   6.271  0.0472  0.2575  0.3870
   31HTM   C154 2281   3.576   5.795   6.235  0.0114  0.0845  0.1366
   31HTM    S16 2282   3.439   5.689   6.187  0.2425 -0.1366 -0.0376
   32TAL   C155 2283   3.827   5.756   6.309 -0.2176  0.4561  0.0534
   32TAL   C156 2284   3.864   5.736   6.458 -0.1251  1.1386  0.3330
   32TAL   C157 2285   3.838   5.610   6.543 -0.3746  0.4372  0.4162
   32TAL   C158 2286   3.905   5.484   6.481 -1.0645  0.1082  0.4691
   32TAL   C159 2287   3.843   5.360   6.544 -0.1910 -0.0671 -0.1298
   32TAL   C160 2288   3.891   5.228   6.482 -0.6199  0.1526 -0.5081
   33HTM   C161 2289   3.553   5.938   6.249  0.0213 -0.2860 -0.1922
   33HTM   C162 2290   3.645   6.037   6.266 -0.0769 -0.1256 -0.5810
   33HTM   C163 2291   3.586   6.166   6.295 -0.1928 -0.1326 -0.7827
   33HTM   C164 2292   3.450   6.164   6.300 -0.1828 -0.2980 -0.5470
   33HTM    S17 2293   3.384   5.999   6.268 -0.0252 -0.4593 -0.0484
   34TAL   C165 2294   3.672   6.282   6.335 -0.3257  0.0732 -0.0823
   34TAL   C166 2295   3.718   6.340   6.202 -0.1169  0.1605 -0.3912
   34TAL   C167 2296   3.844   6.424   6.227 -0.2265 -0.4040 -0.6600
   34TAL   C168 2297   3.899   6.489   6.099  0.3689  0.1731 -0.3790
   34TAL   C169 2298   3.955   6.387   5.998 -0.4772 -0.4041 -0.1365
   34TAL   C170 2299   4.005   6.460   5.874 -0.3616  0.0005  0.0700
   35HTM   C171 2300   3.350   6.267   6.343 -0.2287 -0.1519  0.0163
   35HTM   C172 2301   3.353   6.401   6.317 -0.3431 -0.1798 -0.1411
   35HTM   C173 2302   3.235   6.471   6.361 -0.4103 -0.2310 -0.2391
   35HTM   C174 2303   3.142   6.390   6.421 -0.3473 -0.2420 -0.1566
   35HTM    S18 2304   3.198   6.219   6.425 -0.1968 -0.1886  0.0531
   36TAL   C175 2305   3.226   6.620   6.349  0.3156  0.2091 -0.0908
   36TAL   C176 2306   3.339   6.710   6.281 -0.7260 -0.0617 -0.4420
   36TAL   C177 2307   3.474   6.721   6.359 -0.1031  0.3278  1.2970
   36TAL   C178 2308   3.600   6.788   6.300 -0.0366  0.4091 -0.2050
   36TAL   C179 2309   3.699   6.818   6.407  0.3938  0.2050  0.0121
   36TAL   C180 2310   3.842   6.858   6.360  0.7755  0.2648 -0.6458
   37HTM   C181 2311   3.003   6.408   6.455 -0.3490  0.1135  0.1517
   37HTM   C182 2312   2.949   6.500   6.539 -0.5869 -0.2410  0.3932
   37HTM   C183 2313   2.808   6.483   6.563 -0.5012 -0.7870  0.5131
   37HTM   C184 2314   2.754   6.377   6.497 -0.1981 -0.8489  0.3631
   37HTM    S19 2315   2.878   6.290   6.398  0.0043 -0.2175  0.0564
   38TAL   C185 2316   2.739   6.577   6.649  0.3638 -0.2845 -0.4386
   38TAL   C186 2317   2.705   6.512   6.786 -0.6668 -0.3916 -0.6608
   38TAL   C187 2318   2.628   6.592   6.890  0.4983  0.8373  0.0965
   38TAL   C188 2319   2.694   6.729   6.925  0.1072 -0.1309  0.9468
   38TAL   C189 2320   2.625   6.794   7.044 -0.1358  0.0805  0.4691
   38TAL   C190 2321   2.697   6.915   7.109 -0.3086  0.1311 -0.5965
   39HTM   C191 2322   2.617   6.329   6.489 -0.4119  0.1681 -0.3483
   39HTM   C192 2323   2.498   6.395   6.488 -0.5383 -0.0687 -1.4243
   39HTM   C193 2324   2.385   6.310   6.463 -0.2263 -0.4301 -1.6139
   39HTM   C194 2325   2.418   6.178   6.446  0.1380 -0.4684 -0.6816
   39HTM    S20 2326   2.596   6.153   6.459  0.1149 -0.0484  0.5163
   40TAL   C195 2327   2.244   6.363   6.448  0.1719 -0.2034 -0.1613
   40TAL   C196 2328   2.177   6.395   6.581 -0.9352 -0.3757  0.2868
   40TAL   C197 2329   2.032   6.418   6.583  0.2003 -0.0592  0.3063
   40TAL   C198 2330   1.947   6.289   6.551  0.4676  0.2393  0.2389
   40TAL   C199 2331   1.801   6.324   6.522 -0.1936  0.0668  0.4683
   40TAL   C200 2332   1.742   6.204   6.454  0.1787  0.4101  0.8004
   41HTM   C201 2333   2.334   6.060   6.414 -0.2760  0.3007 -0.7214
   41HTM   C202 2334   2.357   5.961   6.323 -0.7950  0.6077 -1.1864
   41HTM   C203 2335   2.252   5.863   6.317 -0.8106  0.6068 -0.8950
   41HTM   C204 2336   2.150   5.886   6.404 -0.3035  0.2990 -0.2081
   41HTM    S21 2337   2.178   6.036   6.501  0.2374 -0.0158  0.1267
   42TAL   C205 2338   2.258   5.756   6.211  0.3168 -0.3679  0.4079
   42TAL   C206 2339   2.374   5.667   6.188  0.2372 -0.3524  0.3436
   42TAL   C207 2340   2.455   5.606   6.300 -0.4452  0.2513  0.0851
   42TAL   C208 2341   2.530   5.479   6.267 -0.3882  0.0187 -0.5000
   42TAL   C209 2342   2.622   5.479   6.149 -0.1008  1.0027  0.2310
   42TAL   C210 2343   2.672   5.334   6.131  0.0820 -0.0352 -0.1637
   43HTM   C211 2344   2.034   5.805   6.454  0.2304 -0.0372 -0.0137
   43HTM   C212 2345   1.911   5.842   6.501  0.0859  0.0510 -0.4513
   43HTM   C213 2346   1.832   5.732   6.549 -0.1041  0.1264 -0.5910
   43HTM   C214 2347   1.894   5.611   6.538 -0.1045  0.0957 -0.2597
   43HTM    S22 2348   2.058   5.627   6.466  0.1369 -0.0319  0.2586
   44TAL   C215 2349   1.683   5.737   6.599 -0.7002  0.5706 -0.0428
   44TAL   C216 2350   1.606   5.870   6.574  0.0294 -0.4683 -0.4809
   44TAL   C217 2351   1.455   5.850   6.571 -0.0163  0.3137 -0.7248
   44TAL   C218 2352   1.371   5.975   6.594  0.6202  0.2658 -0.1461
   44TAL   C219 2353   1.223   5.939   6.576 -0.2232 -0.5873  0.4186
   44TAL   C220 2354   1.141   6.057   6.609  0.6183 -0.2971  0.4219
   45HTM   C221 2355   1.862   5.472   6.571 -0.4021  0.1984  0.2363
   45HTM   C222 2356   1.930   5.360   6.534  0.0803  0.4632  0.3021
   45HTM   C223 2357   1.883   5.240   6.598  0.4905  0.2770  0.2563
   45HTM   C224 2358   1.780   5.261   6.685  0.3208 -0.1296  0.1555
   45HTM    S23 2359   1.734   5.435   6.692 -0.3755 -0.3101  0.1102
   46TAL   C225 2360   1.947   5.110   6.571 -0.3543 -0.1513 -0.2282
   46TAL   C226 2361   1.972   5.056   6.432  0.1526 -0.3419 -0.2765
   46TAL   C227 2362   1.856   5.059   6.335 -0.1306 -0.4430 -0.4522
   46TAL   C228 2363   1.873   4.996   6.203  0.2001  0.2792  0.7080
   46TAL   C229 2364   1.757   5.007   6.101  0.1031 -0.3252 -0.1733
   46TAL   C230 2365   1.775   5.140   6.030  0.0247 -0.0133  0.0476
   47HTM   C231 2366   1.698   5.166   6.763  0.2102  0.0643  0.3909
   47HTM   C232 2367   1.567   5.177   6.797  0.1525  0.0319  0.1824
   47HTM   C233 2368   1.518   5.068   6.878  0.0144 -0.0486 -0.0093
   47HTM   C234 2369   1.613   4.974   6.905 -0.0333 -0.0782  0.0532
   47HTM    S24 2370   1.772   5.015   6.830  0.0937 -0.0057  0.3612
   48TAL   C235 2371   1.370   5.066   6.924  0.5381  0.0652 -0.0384
   48TAL   C236 2372   1.330   4.958   7.016  0.0719 -0.7564  0.3948
   48TAL   C237 2373   1.266   4.832   6.948  0.0785  0.7788 -0.0238
   48TAL   C238 2374   1.342   4.766   6.825 -0.3770  0.0439  0.5609
   48TAL   C239 2375   1.294   4.623   6.795  0.0200 -0.0640 -0.3646
   48TAL   C240 2376   1.351   4.565   6.669 -0.0342  0.1255 -0.0259
    1HTM     C1 2377   2.097   1.521   0.945 -0.2308  0.1087  0.0680
    1HTM     C2 2378   2.075   1.535   1.079  0.5203  0.1389  0.1925
    1HTM     C3 2379   2.077   1.672   1.123  1.2827  0.1155  0.2463
    1HTM     C4 2380   2.100   1.762   1.024  1.1126  0.0674  0.1630
    1HTM     S1 2381   2.122   1.680   0.864 -0.0323  0.0478  0.0088
    2TAL     C5 2382   2.052   1.714   1.266  0.2058  0.1546 -0.6234
    2TAL     C6 2383   1.914   1.686   1.309  0.0510 -0.1774  0.1418
    2TAL     C7 2384   1.881   1.718   1.453  0.5806  0.2518 -0.1592
    2TAL     C8 2385   1.975   1.667   1.570  0.0839  0.1409 -0.4576
    2TAL     C9 2386   1.978   1.512   1.590 -0.4217 -0.3280 -0.6248
    2TAL    C10 2387   2.094   1.477   1.698  0.0771  0.0301 -0.1285
    3HTM    C11 2388   2.097   1.908   1.017  0.6952 -0.1747 -0.2470
    3HTM    C12 2389   2.150   1.997   1.105  1.3704 -0.3200 -0.5041
    3HTM    C13 2390   2.145   2.133   1.059  1.3809 -0.2893 -0.4150
    3HTM    C14 2391   2.088   2.148   0.936  0.7138 -0.1207 -0.0901
    3HTM     S2 2392   2.035   1.989   0.868  0.0149  0.0132  0.1303
    4TAL    C15 2393   2.208   2.248   1.144 -0.2626 -0.0773 -0.1756
    4TAL    C16 2394   2.114   2.308   1.248  0.4905  0.3375 -0.0559
    4TAL    C17 2395   2.182   2.390   1.350  0.0116 -0.7705 -0.2271
    4TAL    C18 2396   2.084   2.439   1.455  0.0301  0.1456  0.0881
    4TAL    C19 2397   2.135   2.546   1.555  0.0717 -0.0627 -0.1727
    4TAL    C20 2398   2.211   2.664   1.497  0.3335 -0.8854  0.4990
    5HTM    C21 2399   2.058   2.258   0.849  0.0194 -0.2278 -0.2874
    5HTM    C22 2400   1.985   2.251   0.734 -0.2933 -0.0521 -0.1029
    5HTM    C23 2401   1.974   2.377   0.664 -0.5156  0.0622  0.1391
    5HTM    C24 2402   2.038   2.480   0.727 -0.3726 -0.0264  0.1393
    5HTM     S3 2403   2.118   2.426   0.879  0.0577 -0.2627 -0.1688
    6TAL    C25 2404   1.875   2.401   0.547 -0.3270  0.1278  0.1855
    6TAL    C26 2405   1.726   2.382   0.570  0.2669 -0.0292 -0.2232
    6TAL    C27 2406   1.666   2.508   0.632  0.2999  0.4918 -0.4933
    6TAL    C28 2407   1.513   2.522   0.628  0.4641  0.1769 -0.5814
    6TAL    C29 2408   1.451   2.644   0.687 -0.4922  0.5321  0.0306
    6TAL    C30 2409   1.303   2.679   0.631 -0.3357  0.3729 -0.5076
    7HTM    C31 2410   2.065   2.613   0.676  0.2298 -0.0622 -0.2388
    7HTM    C32 2411   2.152   2.643   0.575  0.2164  0.1314 -0.1920
    7HTM    C33 2412   2.178   2.784   0.561  0.0256  0.1774 -0.0810
    7HTM    C34 2413   2.111   2.861   0.652 -0.1065  0.0189 -0.0432
    7HTM     S4 2414   2.009   2.761   0.762  0.0007 -0.2025 -0.1456
    8TAL    C35 2415   2.274   2.829   0.454  0.0950 -0.4104  0.4343
    8TAL    C36 2416   2.361   2.721   0.383  0.0773 -0.1252 -0.5600
    8TAL    C37 2417   2.454   2.789   0.280  0.1379  0.7264 -0.4279
    8TAL    C38 2418   2.521   2.692   0.187  0.0942  0.0885 -0.4346
    8TAL    C39 2419   2.613   2.763   0.091  0.1115 -0.4693 -0.3390
    8TAL    C40 2420   2.719   2.685   0.009  0.1426  0.0676  0.4945
    9HTM    C41 2421   2.120   3.004   0.685  0.4344  0.1704 -0.1587
    9HTM    C42 2422   2.241   3.062   0.711  0.3474  0.4923 -0.4595
    9HTM    C43 2423   2.232   3.193   0.769  0.1427  0.4891 -0.4847
    9HTM    C44 2424   2.104   3.236   0.788  0.0738  0.1648 -0.2031
    9HTM     S5 2425   1.984   3.112   0.733  0.2636 -0.1645  0.1183
   10TAL    C45 2426   2.359   3.267   0.800 -0.4881 -0.0127 -0.3257
   10TAL    C46 2427   2.497   3.209   0.760 -0.1811 -0.2920 -0.6049
   10TAL    C47 2428   2.602   3.298   0.814  0.1001  0.2304  0.2726
   10TAL    C48 2429   2.737   3.242   0.811 -0.1947  0.0502  0.2091
   10TAL    C49 2430   2.832   3.343   0.867 -0.0177 -0.0434 -0.2480
   10TAL    C50 2431   2.977   3.288   0.876 -0.5604  0.1426 -0.6640
   11HTM    C51 2432   2.059   3.357   0.856  0.3204 -0.4241  0.6880
   11HTM    C52 2433   1.925   3.381   0.867  0.2759 -0.7637  0.9077
   11HTM    C53 2434   1.893   3.517   0.904 -0.0151 -0.7648  0.6711
   11HTM    C54 2435   2.003   3.596   0.922 -0.1925 -0.4263  0.2710
   11HTM     S6 2436   2.156   3.504   0.892 -0.0045 -0.0771  0.1611
   12TAL    C55 2437   1.749   3.570   0.896  0.5897 -0.1230 -0.6617
   12TAL    C56 2438   1.629   3.487   0.842  0.1851  0.0424 -0.4932
   12TAL    C57 2439   1.501   3.561   0.862  0.3466  0.4821 -0.6696
   12TAL    C58 2440   1.380   3.459   0.867 -0.0278 -0.1306  0.4759
   12TAL    C59 2441   1.242   3.521   0.890  0.0486  0.4446  0.1295
   12TAL    C60 2442   1.214   3.556   1.032 -0.1545 -0.3640 -0.2914
   13HTM    C61 2443   2.031   3.735   0.960 -0.2737  0.1533 -0.1724
   13HTM    C62 2444   1.936   3.829   0.988 -0.1083  0.4297 -0.5242
   13HTM    C63 2445   1.990   3.956   1.029  0.1119  0.3477 -0.5590
   13HTM    C64 2446   2.126   3.959   1.032  0.1141  0.0085 -0.2337
   13HTM     S7 2447   2.197   3.801   0.983 -0.1637 -0.2353  0.1448
   14TAL    C65 2448   1.892   4.068   1.071 -0.1856 -0.1982  0.1075
   14TAL    C66 2449   1.818   4.054   1.208 -1.0052 -0.1662  0.2354
   14TAL    C67 2450   1.718   3.940   1.225  0.1619 -0.0647 -0.0378
   14TAL    C68 2451   1.585   3.972   1.156  0.3379  0.0660  0.1540
   14TAL    C69 2452   1.475   3.877   1.194  0.4880 -0.4292 -0.1926
   14TAL    C70 2453   1.343   3.934   1.138  0.4795 -0.1017  0.6068
   15HTM    C71 2454   2.218   4.065   1.072  0.2982  0.0252 -0.3406
   15HTM    C72 2455   2.202   4.199   1.055  0.2837  0.0703  0.0190
   15HTM    C73 2456   2.312   4.277   1.103  0.1787 -0.0324  0.4293
   15HTM    C74 2457   2.413   4.203   1.157  0.1134 -0.1557  0.3826
   15HTM     S8 2458   2.376   4.027   1.151  0.1796 -0.1517 -0.1876
   16TAL    C75 2459   2.324   4.432   1.084  0.9815  0.6397  0.1935
   16TAL    C76 2460   2.196   4.508   1.113  0.1416  0.2436 -0.6037
   16TAL    C77 2461   2.213   4.661   1.100  0.0987 -0.4814 -0.6870
   16TAL    C78 2462   2.092   4.746   1.140  0.1091 -0.3473 -0.1389
   16TAL    C79 2463   2.068   4.743   1.294  0.3185  0.0912  0.9043
   16TAL    C80 2464   1.922   4.777   1.318 -0.4104  0.2831  0.1066
   17HTM    C81 2465   2.535   4.248   1.227  0.2904  0.0116  0.6932
   17HTM    C82 2466   2.540   4.312   1.348  0.6919  0.2458  0.5528
   17HTM    C83 2467   2.673   4.325   1.401  0.8696  0.3450  0.0865
   17HTM    C84 2468   2.770   4.271   1.321  0.6038  0.1857 -0.1286
   17HTM     S9 2469   2.699   4.198   1.171  0.1044 -0.1035  0.2440
   18TAL    C85 2470   2.687   4.404   1.533 -0.9539  1.1102  0.5490
   18TAL    C86 2471   2.678   4.341   1.673  0.1959  0.4753 -0.0798
   18TAL    C87 2472   2.582   4.224   1.706  0.1403  0.1609  0.1948
   18TAL    C88 2473   2.433   4.236   1.666 -0.0120 -0.2295 -0.7612
   18TAL    C89 2474   2.339   4.115   1.680 -0.2340  0.8649 -0.1819
   18TAL    C90 2475   2.352   4.023   1.560  1.1431 -0.0696 -0.3129
   19HTM    C91 2476   2.917   4.263   1.341 -0.2629 -0.2341  0.0295
   19HTM    C92 2477   2.997   4.329   1.429 -0.5833  0.0811  0.0867
   19HTM    C93 2478   3.136   4.295   1.417 -0.4497  0.5691  0.2372
   19HTM    C94 2479   3.162   4.203   1.320 -0.0271  0.6262  0.2948
   19HTM    S10 2480   3.012   4.152   1.235  0.2364  0.0635  0.1624
   20TAL    C95 2481   3.224   4.362   1.529  0.4894  0.2558  0.5891
   20TAL    C96 2482   3.283   4.496   1.478  0.1346 -0.4420 -0.6293
   20TAL    C97 2483   3.402   4.554   1.552  0.3295 -0.0954  0.3688
   20TAL    C98 2484   3.533   4.485   1.525 -0.0403 -0.3604  0.0158
   20TAL    C99 2485   3.640   4.574   1.583 -0.1359  0.8806  0.2597
   20TAL   C100 2486   3.761   4.492   1.547 -0.0600 -1.0899  1.0198
   21HTM   C101 2487   3.285   4.133   1.284  0.2626 -0.3663 -0.4668
   21HTM   C102 2488   3.301   4.026   1.201  0.5299 -0.5527 -0.1776
   21HTM   C103 2489   3.437   3.979   1.192  0.5925 -0.4529  0.2120
   21HTM   C104 2490   3.525   4.051   1.267  0.3726 -0.1903  0.2198
   21HTM    S11 2491   3.442   4.184   1.357  0.0676 -0.0478 -0.2681
   22TAL   C105 2492   3.473   3.857   1.111 -0.0839 -0.0914  0.1961
   22TAL   C106 2493   3.453   3.715   1.166 -0.6044 -0.1810 -0.0047
   22TAL   C107 2494   3.587   3.648   1.196 -0.5824 -0.4091 -0.1134
   22TAL   C108 2495   3.687   3.612   1.085 -0.4545  0.0092 -0.2465
   22TAL   C109 2496   3.803   3.527   1.134 -0.2653 -0.2409  0.3306
   22TAL   C110 2497   3.868   3.449   1.020 -0.2998 -0.3373  0.0999
   23HTM   C111 2498   3.669   4.052   1.284 -0.6241  0.2702  0.1092
   23HTM   C112 2499   3.746   3.943   1.257 -0.8477  0.0924  0.1830
   23HTM   C113 2500   3.888   3.967   1.268 -0.7985 -0.2102  0.2369
   23HTM   C114 2501   3.918   4.095   1.304 -0.5374 -0.2631  0.2041
   23HTM    S12 2502   3.770   4.195   1.327 -0.3317  0.0677  0.1019
   24TAL   C115 2503   3.979   3.853   1.234 -0.3839  0.2960  0.2457
   24TAL   C116 2504   4.045   3.859   1.099  0.0069  0.3647  0.4985
   24TAL   C117 2505   4.138   3.976   1.074  0.1682 -0.2437  0.2774
   24TAL   C118 2506   4.293   3.953   1.078  0.3095  0.1022  0.1095
   24TAL   C119 2507   4.351   3.879   0.959 -0.7349  0.5102  0.4068
   24TAL   C120 2508   4.494   3.835   0.957  0.0856  0.3540  0.3712
   25HTM   C121 2509   4.046   4.155   1.347 -0.1170 -0.3779 -0.3381
   25HTM   C122 2510   4.104   4.271   1.304 -0.2761 -0.3986 -0.6109
   25HTM   C123 2511   4.238   4.289   1.352 -0.3183 -0.0772 -0.6154
   25HTM   C124 2512   4.283   4.188   1.431 -0.1910  0.1885 -0.3460
   25HTM    S13 2513   4.157   4.060   1.452 -0.0064  0.0525 -0.0636
   26TAL   C125 2514   4.326   4.408   1.300  0.1273  0.6071 -0.7454
   26TAL   C126 2515   4.353   4.404   1.150  0.0124  0.3793  0.4102
   26TAL   C127 2516   4.422   4.282   1.088  0.1417 -0.7569  0.8356
   26TAL   C128 2517   4.566   4.275   1.137  0.1068  0.0726  0.3802
   26TAL   C129 2518   4.639   4.141   1.109  0.4689 -0.3970 -0.7212
   26TAL   C130 2519   4.768   4.131   1.181 -0.2556 -0.6113  0.2609
   27HTM   C131 2520   4.419   4.162   1.493 -0.2877 -0.0535  0.7757
   27HTM   C132 2521   4.456   4.044   1.551 -0.2885 -0.0081  0.8678
   27HTM   C133 2522   4.590   4.046   1.605 -0.0887 -0.1397  0.3871
   27HTM   C134 2523   4.654   4.165   1.588  0.0651 -0.2857 -0.0715
   27HTM    S14 2524   4.551   4.285   1.502 -0.0319 -0.2679  0.0693
   28TAL   C135 2525   4.651   3.922   1.664  0.6960 -0.1906 -0.8394
   28TAL   C136 2526   4.583   3.785   1.667 -0.2623 -0.2165 -0.3495
   28TAL   C137 2527   4.458   3.780   1.747 -0.4480 -0.4665 -0.6481
   28TAL   C138 2528   4.352   3.670   1.723  0.0644 -0.1860 -0.1908
   28TAL   C139 2529   4.406   3.532   1.732 -0.1388 -0.2681  1.0047
   28TAL   C140 2530   4.295   3.429   1.718  0.3152  0.6872  0.0436
   29HTM   C141 2531   4.776   4.213   1.641 -0.1330 -0.0307  0.0608
   29HTM   C142 2532   4.795   4.257   1.769  0.0134 -0.1862  0.0923
   29HTM   C143 2533   4.933   4.277   1.804  0.0656 -0.4227  0.0228
   29HTM   C144 2534   5.020   4.248   1.702 -0.0413 -0.4471 -0.0618
   29HTM    S15 2535   4.932   4.194   1.554 -0.2172 -0.1720 -0.0602
   30TAL   C145 2536   4.968   4.332   1.948  0.2425 -0.3752 -0.6117
   30TAL   C146 2537   4.956   4.238   2.076 -0.1569 -0.2051  0.8646
   30TAL   C147 2538   4.817   4.175   2.108 -0.3798 -0.2948  0.4238
   30TAL   C148 2539   4.825   4.089   2.232 -0.3415 -0.3588  0.6582
   30TAL   C149 2540   4.702   4.003   2.272  0.8439  0.3300 -0.2226
   30TAL   C150 2541   4.741   3.901   2.370  0.4918 -0.1035  0.2556
   31HTM   C151 2542   5.162   4.259   1.702 -0.1435 -0.4066  0.3732
   31HTM   C152 2543   5.243   4.307   1.603 -0.1512 -0.7279  0.2102
   31HTM   C153 2544   5.381   4.320   1.642 -0.1578 -0.5469  0.1786
   31HTM   C154 2545   5.405   4.281   1.771 -0.1558 -0.0875  0.3176
   31HTM    S16 2546   5.255   4.226   1.853 -0.1445  0.1545  0.5005
   32TAL   C155 2547   5.470   4.397   1.548 -0.0351 -0.2968  0.0187
   32TAL   C156 2548   5.551   4.318   1.444 -0.5023 -0.3142 -0.2530
   32TAL   C157 2549   5.693   4.269   1.489  0.7212 -0.8191 -0.1928
   32TAL   C158 2550   5.786   4.379   1.544 -0.5691 -0.0502  0.3094
   32TAL   C159 2551   5.910   4.332   1.620 -0.9359 -0.0915  0.4893
   32TAL   C160 2552   5.994   4.451   1.663  0.2925 -0.2274  0.0480
   33HTM   C161 2553   5.530   4.279   1.842 -0.0328  0.2236 -0.2256
   33HTM   C162 2554   5.590   4.387   1.900  0.0868  0.3383 -0.5596
   33HTM   C163 2555   5.718   4.358   1.960  0.2398  0.4704 -0.8240
   33HTM   C164 2556   5.756   4.228   1.947  0.2374  0.4561 -0.6914
   33HTM    S17 2557   5.633   4.131   1.858  0.0394  0.2736 -0.2188
   34TAL   C165 2558   5.780   4.476   2.038  0.1827  0.0930  0.6133
   34TAL   C166 2559   5.905   4.528   1.978  0.2559  0.7344 -0.7257
   34TAL   C167 2560   5.951   4.664   2.022 -0.5376  0.0897  0.2883
   34TAL   C168 2561   6.009   4.692   2.166  0.1042  0.2432 -0.0725
   34TAL   C169 2562   6.084   4.822   2.203  0.0995  0.3113 -0.2282
   34TAL   C170 2563   6.011   4.954   2.186 -0.7461 -0.3406 -0.0592
   35HTM   C171 2564   5.885   4.164   1.973 -0.2110 -0.0939 -0.0198
   35HTM   C172 2565   6.009   4.222   1.980 -0.2184 -0.0792 -0.0144
   35HTM   C173 2566   6.117   4.127   1.985 -0.2172 -0.0687  0.1696
   35HTM   C174 2567   6.076   3.997   1.982 -0.2090 -0.0753  0.3044
   35HTM    S18 2568   5.896   3.984   1.971 -0.2022 -0.0956  0.2086
   36TAL   C175 2569   6.265   4.172   1.983  0.0533 -0.2184  0.2948
   36TAL   C176 2570   6.295   4.318   1.959  0.6784  0.0860  0.0322
   36TAL   C177 2571   6.436   4.361   1.974  0.4092 -0.3360 -0.9990
   36TAL   C178 2572   6.447   4.510   1.989 -0.4771  0.3336  0.6918
   36TAL   C179 2573   6.586   4.547   2.017 -0.3129  0.6480 -0.2214
   36TAL   C180 2574   6.595   4.696   2.037  0.1980  0.2746  0.2690
   37HTM   C181 2575   6.150   3.870   1.992  0.0574  0.2999  0.0924
   37HTM   C182 2576   6.106   3.744   1.968  0.0474  0.3352 -0.0753
   37HTM   C183 2577   6.203   3.642   1.998  0.0229  0.2853 -0.1658
   37HTM   C184 2578   6.321   3.691   2.045  0.0142  0.2118 -0.0672
   37HTM    S19 2579   6.319   3.871   2.055  0.0365  0.2001  0.1492
   38TAL   C185 2580   6.167   3.497   1.961  0.2094  0.5475  0.1941
   38TAL   C186 2581   6.221   3.388   2.048  0.4680  0.1706  0.3312
   38TAL   C187 2582   6.174   3.252   1.993  0.5750  0.2776 -0.0309
   38TAL   C188 2583   6.275   3.155   2.046 -0.1782 -0.1854  0.0858
   38TAL   C189 2584   6.220   3.018   2.048 -0.1161 -0.7094 -0.5045
   38TAL   C190 2585   6.320   2.903   2.068 -0.2287 -0.4143 -0.4815
   39HTM   C191 2586   6.431   3.623   2.101 -0.3287 -0.3173  0.1519
   39HTM   C192 2587   6.486   3.653   2.222 -0.4563 -0.3723  0.2239
   39HTM   C193 2588   6.605   3.577   2.253 -0.2580 -0.0985  0.1388
   39HTM   C194 2589   6.640   3.489   2.154  0.0208  0.1652  0.0021
   39HTM    S20 2590   6.525   3.496   2.015  0.0554  0.0875 -0.0300
   40TAL   C195 2591   6.680   3.612   2.382 -0.4734  0.4122 -0.1836
   40TAL   C196 2592   6.746   3.495   2.461 -0.3749 -0.5141 -0.1512
   40TAL   C197 2593   6.654   3.404   2.543 -0.3919  0.3631 -0.5885
   40TAL   C198 2594   6.738   3.320   2.640  0.6536  0.0719  0.4430
   40TAL   C199 2595   6.838   3.216   2.582  0.9210  0.1701  0.5837
   40TAL   C200 2596   6.785   3.091   2.508  0.1252  0.1095 -0.3460
   41HTM   C201 2597   6.743   3.387   2.141  0.1171 -0.1208 -0.1675
   41HTM   C202 2598   6.878   3.402   2.130  0.1266 -0.4699 -0.5784
   41HTM   C203 2599   6.951   3.278   2.128 -0.1895 -0.6558 -0.6808
   41HTM   C204 2600   6.872   3.168   2.138 -0.4396 -0.4486 -0.3480
   41HTM    S21 2601   6.697   3.212   2.150 -0.2946  0.0012  0.1243
   42TAL   C205 2602   7.100   3.271   2.112 -0.0160  0.1286  1.1618
   42TAL   C206 2603   7.191   3.398   2.102  0.7468 -0.3322 -0.2396
   42TAL   C207 2604   7.238   3.471   2.227 -0.0142 -0.3687 -0.2540
   42TAL   C208 2605   7.323   3.395   2.328  0.2188  0.8499 -0.5506
   42TAL   C209 2606   7.314   3.447   2.465  0.2643  0.0750 -0.6659
   42TAL   C210 2607   7.179   3.436   2.530 -0.0910  0.0770  1.0004
   43HTM   C211 2608   6.899   3.026   2.149 -0.1286 -0.1081  0.0797
   43HTM   C212 2609   6.811   2.926   2.119  0.0832 -0.2594 -0.0328
   43HTM   C213 2610   6.870   2.794   2.124  0.3064 -0.1580  0.0348
   43HTM   C214 2611   7.002   2.794   2.158  0.2646  0.0709  0.1988
   43HTM    S22 2612   7.063   2.961   2.187 -0.0622  0.1768  0.2813
   44TAL   C215 2613   6.781   2.671   2.097 -0.5269  0.4329 -0.3221
   44TAL   C216 2614   6.671   2.635   2.190  0.9849 -0.3937 -0.3224
   44TAL   C217 2615   6.718   2.579   2.325  0.1203  0.8253 -0.1174
   44TAL   C218 2616   6.785   2.435   2.329  0.1200 -0.3530  0.4378
   44TAL   C219 2617   6.844   2.405   2.461  0.1597 -0.7318  0.5827
   44TAL   C220 2618   6.926   2.275   2.467  0.6053  0.3989  0.4848
   45HTM   C221 2619   7.110   2.691   2.173  0.0036 -0.1264 -0.1569
   45HTM   C222 2620   7.098   2.555   2.181  0.0143 -0.1699 -0.8267
   45HTM   C223 2621   7.223   2.485   2.173  0.0350 -0.1116 -1.0167
   45HTM   C224 2622   7.331   2.568   2.159  0.0396 -0.0239 -0.4919
   45HTM    S23 2623   7.282   2.741   2.154  0.0184 -0.0079  0.2892
   46TAL   C225 2624   7.222   2.341   2.215  0.1965  0.1659  0.7201
   46TAL   C226 2625   7.162   2.237   2.110 -0.1570 -0.3442 -0.0415
   46TAL   C227 2626   7.162   2.093   2.159  0.6836 -0.2150  0.1760
   46TAL   C228 2627   7.293   2.029   2.195 -0.0655  0.3220  0.8492
   46TAL   C229 2628   7.409   2.034   2.095  0.8788 -0.2694 -0.8691
   46TAL   C230 2629   7.532   1.971   2.150 -0.3591  0.3333 -0.0523
   47HTM   C231 2630   7.471   2.544   2.133 -0.0365 -0.3308 -0.5415
   47HTM   C232 2631   7.536   2.424   2.132 -0.1118 -0.3699 -1.0018
   47HTM   C233 2632   7.678   2.436   2.108 -0.0820 -0.3560 -0.8171
   47HTM   C234 2633   7.721   2.564   2.091  0.0160 -0.3061 -0.2158
   47HTM    S24 2634   7.584   2.682   2.104  0.0789 -0.2726  0.1667
   48TAL   C235 2635   7.765   2.311   2.096 -0.0413  0.1823  0.7136
   48TAL   C236 2636   7.917   2.321   2.092 -0.2172 -0.4635  0.0864
   48TAL   C237 2637   7.999   2.198   2.071 -0.1156 -0.0890 -0.0777
   48TAL   C238 2638   8.149   2.236   2.076 -0.6517 -0.1839 -0.3818
   48TAL   C239 2639   8.232   2.119   2.021 -0.3051 -0.8909 -0.0336
   48TAL   C240 2640   8.378   2.147   2.019 -1.2622 -0.6576 -0.2578
    1HTM     C1 2641   6.211   7.508   8.909  0.1230 -0.1410 -0.0596
    1HTM     C2 2642   6.106   7.592   8.929  0.2410 -0.0255  0.0734
    1HTM     C3 2643   6.011   7.544   9.026  0.1860 -0.0334  0.0153
    1HTM     C4 2644   6.043   7.422   9.079  0.0253 -0.1549 -0.1626
    1HTM     S1 2645   6.198   7.359   9.011 -0.0688 -0.2694 -0.2712
    2TAL     C5 2646   5.869   7.608   9.046 -0.1640  0.8723  0.3400
    2TAL     C6 2647   5.757   7.626   8.938 -0.1904  0.3807 -0.3192
    2TAL     C7 2648   5.657   7.516   8.903 -0.1272 -0.4569  0.0356
    2TAL     C8 2649   5.720   7.381   8.864  0.4833  0.0181 -0.1808
    2TAL     C9 2650   5.828   7.379   8.753 -0.5518  0.4728 -0.5209
    2TAL    C10 2651   5.894   7.253   8.710  0.7285  0.5665  0.1618
    3HTM    C11 2652   5.970   7.335   9.171  0.3045  0.1613  0.2195
    3HTM    C12 2653   5.841   7.339   9.215  0.2272  0.1712 -0.0013
    3HTM    C13 2654   5.808   7.233   9.307 -0.0744 -0.0999 -0.4183
    3HTM    C14 2655   5.912   7.148   9.333 -0.2274 -0.3163 -0.5155
    3HTM     S2 2656   6.060   7.196   9.242 -0.0006 -0.1934 -0.0846
    4TAL    C15 2657   5.672   7.233   9.379 -0.6457 -0.5906 -0.0574
    4TAL    C16 2658   5.569   7.144   9.314 -1.2382  0.0407  0.2463
    4TAL    C17 2659   5.466   7.119   9.421 -0.0890 -0.3782  0.5598
    4TAL    C18 2660   5.349   7.027   9.394  0.5574 -0.2960 -0.6361
    4TAL    C19 2661   5.386   6.875   9.373  0.0319 -0.7127 -0.1183
    4TAL    C20 2662   5.280   6.766   9.372 -0.6478 -0.2402 -0.1565
    5HTM    C21 2663   5.922   7.045   9.433  0.1483  0.2229  0.2119
    5HTM    C22 2664   5.829   6.956   9.477  0.0250  0.5295  0.5736
    5HTM    C23 2665   5.881   6.857   9.568  0.0031  0.5043  0.5591
    5HTM    C24 2666   6.014   6.871   9.593  0.1089  0.1785  0.1865
    5HTM     S3 2667   6.085   7.011   9.503  0.2460 -0.1241 -0.1780
    6TAL    C25 2668   5.786   6.755   9.631  0.1598 -0.5484  0.2162
    6TAL    C26 2669   5.667   6.812   9.692  0.2872 -1.1570 -0.4749
    6TAL    C27 2670   5.575   6.717   9.764 -0.0120 -0.4357 -0.5549
    6TAL    C28 2671   5.519   6.602   9.689  0.6656 -0.2468 -0.2054
    6TAL    C29 2672   5.428   6.505   9.773 -0.2079 -0.3553  0.4816
    6TAL    C30 2673   5.353   6.422   9.673  0.1089  0.2904  0.1444
    7HTM    C31 2674   6.112   6.792   9.672 -0.0398 -0.1715 -0.2756
    7HTM    C32 2675   6.085   6.692   9.761 -0.0515 -0.7086 -0.8727
    7HTM    C33 2676   6.202   6.627   9.813 -0.0470 -0.8221 -1.0264
    7HTM    C34 2677   6.319   6.677   9.763 -0.0315 -0.3716 -0.5464
    7HTM     S4 2678   6.290   6.811   9.647 -0.0212  0.2353  0.1422
    8TAL    C35 2679   6.187   6.516   9.912  0.2818  0.2527 -0.3339
    8TAL    C36 2680   6.183   6.385   9.852 -0.0040  0.4605 -0.2074
    8TAL    C37 2681   6.155   6.280   9.959 -0.0493 -0.3170 -0.1065
    8TAL    C38 2682   6.125   6.145   9.895 -0.4640 -0.4039  0.3166
    8TAL    C39 2683   6.081   6.032   9.987  0.0537  0.4738  0.0673
    8TAL    C40 2684   5.945   6.052  10.052  0.0598 -0.0563  0.0911
    9HTM    C41 2685   6.457   6.649   9.804  0.0005 -0.1938 -0.1195
    9HTM    C42 2686   6.506   6.533   9.858  0.0799 -0.2177 -0.2427
    9HTM    C43 2687   6.647   6.538   9.887  0.0389 -0.0863 -0.0635
    9HTM    C44 2688   6.705   6.658   9.855 -0.0721  0.0376  0.1964
    9HTM     S5 2689   6.586   6.773   9.786 -0.1334 -0.0024  0.2352
   10TAL    C45 2690   6.732   6.423   9.939  0.7015  0.8833 -0.2080
   10TAL    C46 2691   6.679   6.273   9.943 -0.1083 -0.5763  0.0850
   10TAL    C47 2692   6.538   6.233   9.991  0.4791  0.3728  0.2440
   10TAL    C48 2693   6.514   6.084   9.974 -1.1187  0.8146  0.3679
   10TAL    C49 2694   6.517   6.039   9.828  0.3224 -0.1792  0.4030
   10TAL    C50 2695   6.473   5.895   9.816 -0.1025 -0.1474  0.1751
   11HTM    C51 2696   6.835   6.715   9.874  0.1792  0.0738  0.0858
   11HTM    C52 2697   6.884   6.829   9.818  0.0815  0.2508  0.3574
   11HTM    C53 2698   7.023   6.853   9.850  0.0310  0.3514  0.5031
   11HTM    C54 2699   7.079   6.758   9.930  0.0903  0.2516  0.3425
   11HTM     S6 2700   6.960   6.629   9.972  0.2157  0.0206 -0.0079
   12TAL    C55 2701   7.097   6.953   9.766 -0.3134 -0.1054  0.1134
   12TAL    C56 2702   7.066   7.107   9.772  0.8081  0.1192 -0.1289
   12TAL    C57 2703   6.920   7.159   9.756 -0.5980  0.0635 -0.5043
   12TAL    C58 2704   6.866   7.141   9.619  0.1122  0.1079 -0.2153
   12TAL    C59 2705   6.725   7.200   9.600  0.8479 -0.9456 -0.1565
   12TAL    C60 2706   6.614   7.188   9.707 -0.2120 -0.4270  0.0632
   13HTM    C61 2707   7.207   6.727   9.981 -0.1092 -0.2945 -0.1279
   13HTM    C62 2708   7.238   6.613  10.050  0.0026 -0.2389 -0.0854
   13HTM    C63 2709   7.378   6.598  10.079  0.0086 -0.0522 -0.0144
   13HTM    C64 2710   7.455   6.700  10.030 -0.0987  0.0341 -0.0028
   13HTM     S7 2711   7.355   6.824   9.945 -0.2164 -0.1145 -0.0813
   14TAL    C65 2712   7.425   6.481  10.159 -0.4322 -0.2544  0.2328
   14TAL    C66 2713   7.428   6.342  10.093 -0.5776 -0.2550  0.5825
   14TAL    C67 2714   7.433   6.230  10.194  0.3343  0.3007 -0.2631
   14TAL    C68 2715   7.449   6.102  10.122  0.2290  0.2513 -1.0440
   14TAL    C69 2716   7.436   5.975  10.204 -0.1802  0.1617 -0.1775
   14TAL    C70 2717   7.412   5.849  10.130  0.4388  0.4432  0.1521
   15HTM    C71 2718   7.598   6.731  10.053 -0.2337 -0.1442  0.0082
   15HTM    C72 2719   7.660   6.844  10.008 -0.2851 -0.0422  0.1939
   15HTM    C73 2720   7.804   6.838  10.015 -0.2816  0.0007  0.1553
   15HTM    C74 2721   7.852   6.720  10.064 -0.2273 -0.0685 -0.0599
   15HTM     S8 2722   7.718   6.607  10.107 -0.1763 -0.1942 -0.2317
   16TAL    C75 2723   7.900   6.949   9.975 -0.1942  0.5327  0.0096
   16TAL    C76 2724   7.859   7.090   9.941 -0.0032  0.1876 -0.3191
   16TAL    C77 2725   7.970   7.187   9.960 -0.2293 -0.2638 -0.0332
   16TAL    C78 2726   7.913   7.332   9.955  0.1826  0.0095  0.2552
   16TAL    C79 2727   8.024   7.431   9.978  0.3892  0.6172  0.2387
   16TAL    C80 2728   7.969   7.572   9.950 -0.8442 -0.2397 -0.3839
   17HTM    C81 2729   7.992   6.674  10.078 -0.3469 -0.4004 -0.2607
   17HTM    C82 2730   8.109   6.712  10.019 -0.5827 -0.4675 -0.7757
   17HTM    C83 2731   8.220   6.627  10.050 -0.3891 -0.2496 -0.8715
   17HTM    C84 2732   8.189   6.523  10.133 -0.0059 -0.0166 -0.4295
   17HTM     S9 2733   8.014   6.525  10.178  0.1409 -0.0546  0.1464
   18TAL    C85 2734   8.351   6.638   9.979  0.2269  0.7042 -0.6571
   18TAL    C86 2735   8.345   6.616   9.825 -0.5827  0.0442 -0.6578
   18TAL    C87 2736   8.449   6.526   9.768 -0.6702  0.1027 -0.2203
   18TAL    C88 2737   8.483   6.379   9.807 -0.1260 -0.2535  0.3053
   18TAL    C89 2738   8.363   6.285   9.808  0.1056 -0.4226  0.2757
   18TAL    C90 2739   8.387   6.141   9.870  0.2080  0.2399 -0.0752
   19HTM    C91 2740   8.262   6.411  10.193  0.5546  0.2202  0.1146
   19HTM    C92 2741   8.219   6.329  10.293  0.4530  0.1686  0.0280
   19HTM    C93 2742   8.320   6.238  10.341  0.3095 -0.0851 -0.1433
   19HTM    C94 2743   8.440   6.252  10.279  0.3023 -0.2271 -0.1874
   19HTM    S10 2744   8.435   6.380  10.153  0.4775 -0.0498 -0.0145
   20TAL    C95 2745   8.297   6.154  10.462 -0.0709 -0.2416  0.4395
   20TAL    C96 2746   8.188   6.041  10.461 -0.0233 -0.4728  0.0896
   20TAL    C97 2747   8.236   5.908  10.414  0.2196 -0.1916 -0.1761
   20TAL    C98 2748   8.333   5.825  10.500 -0.4002 -0.5076  0.8377
   20TAL    C99 2749   8.380   5.695  10.438  0.1438  0.4289  0.2056
   20TAL   C100 2750   8.482   5.614  10.519  0.4312  0.1039 -0.2314
   21HTM   C101 2751   8.556   6.160  10.285  0.0555 -0.2393 -0.2257
   21HTM   C102 2752   8.568   6.041  10.220  0.3114 -0.3374 -0.0029
   21HTM   C103 2753   8.682   5.964  10.260  0.4768 -0.0172  0.1435
   21HTM   C104 2754   8.758   6.024  10.355  0.3471  0.3249  0.0323
   21HTM    S11 2755   8.690   6.184  10.403  0.0033  0.2692 -0.2682
   22TAL   C105 2756   8.707   5.832  10.195 -0.0825 -0.2902  0.3267
   22TAL   C106 2757   8.612   5.782  10.087 -0.4951 -0.4381 -0.2066
   22TAL   C107 2758   8.581   5.633  10.131  0.2594 -0.3913  0.1293
   22TAL   C108 2759   8.461   5.573  10.058 -0.1256  0.5450  0.1943
   22TAL   C109 2760   8.325   5.639  10.058  0.5358  0.5619  0.0328
   22TAL   C110 2761   8.227   5.539  10.007 -0.7415  0.7099  0.4146
   23HTM   C111 2762   8.869   5.967  10.434  0.2257 -0.1335 -0.5524
   23HTM   C112 2763   8.999   6.007  10.449  0.3505 -0.3600 -1.0006
   23HTM   C113 2764   9.076   5.922  10.536  0.3147 -0.1054 -0.7185
   23HTM   C114 2765   9.005   5.817  10.587  0.1623  0.3149 -0.0552
   23HTM    S12 2766   8.834   5.818  10.529  0.0519  0.4225  0.2671
   24TAL   C115 2767   9.222   5.944  10.560  0.5498 -0.1343  0.4931
   24TAL   C116 2768   9.274   6.082  10.600 -0.3618  0.4361 -0.1555
   24TAL   C117 2769   9.429   6.094  10.600 -0.0006  0.0202 -0.3432
   24TAL   C118 2770   9.495   6.230  10.614 -0.7099  0.3392 -0.5541
   24TAL   C119 2771   9.650   6.215  10.631  0.1322  0.2119 -0.1504
   24TAL   C120 2772   9.735   6.343  10.624 -0.0938  0.3816 -0.3682
   25HTM   C121 2773   9.046   5.700  10.676 -0.0667 -0.2152 -0.2682
   25HTM   C122 2774   8.993   5.575  10.671  0.3700 -0.3941 -0.4879
   25HTM   C123 2775   9.070   5.476  10.742  0.5219 -0.1805 -0.3557
   25HTM   C124 2776   9.182   5.526  10.802  0.2010  0.1607 -0.0352
   25HTM    S13 2777   9.199   5.703  10.772 -0.3220  0.2396  0.1257
   26TAL   C125 2778   9.008   5.338  10.754 -0.1168 -1.0787  0.5632
   26TAL   C126 2779   9.060   5.236  10.654  0.0820 -0.0526  0.7589
   26TAL   C127 2780   9.007   5.093  10.679  0.4742 -0.4492  1.0502
   26TAL   C128 2781   9.055   5.031  10.810  1.1100  0.0081  0.0266
   26TAL   C129 2782   9.208   5.006  10.836  0.3585  0.1167  1.0737
   26TAL   C130 2783   9.256   4.963  10.979 -0.2107 -0.4186  0.3864
   27HTM   C131 2784   9.277   5.452  10.883  0.0037  0.1376 -0.1645
   27HTM   C132 2785   9.262   5.436  11.017  0.1748  1.0121 -0.0362
   27HTM   C133 2786   9.380   5.388  11.084  0.2415  1.3895  0.1210
   27HTM   C134 2787   9.486   5.367  11.001  0.1213  0.8028  0.1125
   27HTM    S14 2788   9.444   5.406  10.830 -0.0871 -0.2797 -0.0962
   28TAL   C135 2789   9.396   5.378  11.237  0.3848  0.1445 -0.4729
   28TAL   C136 2790   9.357   5.489  11.324 -0.3281  0.3541  0.2152
   28TAL   C137 2791   9.393   5.629  11.268 -0.3261 -0.3193  0.2590
   28TAL   C138 2792   9.351   5.743  11.362  0.1390 -0.7066 -0.0264
   28TAL   C139 2793   9.379   5.882  11.306  0.4248 -0.3486 -0.4281
   28TAL   C140 2794   9.320   5.994  11.394  0.0980  0.0306 -0.7864
   29HTM   C141 2795   9.623   5.332  11.021 -0.1138 -0.1372  0.2378
   29HTM   C142 2796   9.689   5.225  11.075  0.0007  0.0372  0.4414
   29HTM   C143 2797   9.831   5.231  11.058 -0.0015  0.1764  0.4647
   29HTM   C144 2798   9.874   5.341  10.990 -0.1176  0.1084  0.2790
   29HTM    S15 2799   9.737   5.447  10.943 -0.2342 -0.1388  0.0585
   30TAL   C145 2800   9.924   5.120  11.108  1.2036  0.2464  0.3368
   30TAL   C146 2801   9.953   5.120  11.256 -0.0217 -0.6041  0.3510
   30TAL   C147 2802  10.073   5.211  11.298 -0.1950  0.0137 -0.0029
   30TAL   C148 2803  10.211   5.148  11.293 -0.5127  0.0171  0.1652
   30TAL   C149 2804  10.303   5.221  11.390  0.4253  0.2410 -0.2308
   30TAL   C150 2805  10.447   5.176  11.381 -0.3993 -0.0503 -0.2926
   31HTM   C151 2806  10.005   5.388  10.950 -0.2816 -0.4843  0.1016
   31HTM   C152 2807  10.121   5.391  11.020 -0.4293 -0.3746  0.3444
   31HTM   C153 2808  10.224   5.470  10.959 -0.4497 -0.0875  0.6772
   31HTM   C154 2809  10.186   5.528  10.841 -0.3177  0.0223  0.6882
   31HTM    S16 2810  10.016   5.487  10.799 -0.1562 -0.2309  0.2759
   32TAL   C155 2811  10.367   5.488  11.020  0.1280  0.8660 -0.0414
   32TAL   C156 2812  10.480   5.388  10.980  0.1214 -0.4529 -0.0407
   32TAL   C157 2813  10.458   5.240  11.005 -0.1424  0.1001  0.3665
   32TAL   C158 2814  10.563   5.161  10.935  0.4049  0.3711 -0.4515
   32TAL   C159 2815  10.584   5.015  10.976 -0.0070  0.3105  0.6429
   32TAL   C160 2816  10.688   4.960  10.872  0.5484  0.9860  0.0627
   33HTM   C161 2817  10.242   5.628  10.758  0.4957 -0.3693 -0.2175
   33HTM   C162 2818  10.367   5.682  10.757  0.3897 -0.1273 -0.3318
   33HTM   C163 2819  10.382   5.790  10.663 -0.0332  0.2038 -0.0245
   33HTM   C164 2820  10.269   5.818  10.592 -0.2496  0.2140  0.3241
   33HTM    S17 2821  10.133   5.709  10.639  0.0664 -0.1965  0.2909
   34TAL   C165 2822  10.517   5.866  10.659  0.6759  0.3448  0.1517
   34TAL   C166 2823  10.518   6.000  10.722  0.2099  0.0668 -0.0341
   34TAL   C167 2824  10.659   6.069  10.701  0.0836  0.3660  0.5445
   34TAL   C168 2825  10.704   6.196  10.776  0.5663 -0.0958  0.0760
   34TAL   C169 2826  10.594   6.299  10.802  0.0167  0.1234 -0.0211
   34TAL   C170 2827  10.628   6.397  10.910  0.5540  0.1711 -0.2240
   35HTM   C171 2828  10.220   5.923  10.502  0.0217 -0.3211 -0.7997
   35HTM   C172 2829  10.093   5.951  10.462  0.1117 -0.5794 -1.2779
   35HTM   C173 2830  10.084   6.055  10.363  0.2394 -0.2677 -0.9629
   35HTM   C174 2831  10.205   6.107  10.327  0.2466  0.2283 -0.2443
   35HTM    S18 2832  10.341   6.027  10.417  0.0916  0.3410  0.0927
   36TAL   C175 2833   9.954   6.103  10.299 -0.0650  0.2030  0.6309
   36TAL   C176 2834   9.822   6.037  10.346  0.2000  0.7921 -0.3660
   36TAL   C177 2835   9.720   6.061  10.242 -0.6932 -0.3253  0.1011
   36TAL   C178 2836   9.586   5.991  10.266  0.1500 -0.6233 -0.5977
   36TAL   C179 2837   9.483   5.988  10.157 -0.0394 -0.7315 -0.3987
   36TAL   C180 2838   9.342   5.964  10.202 -0.6884 -1.2996  1.1080
   37HTM   C181 2839  10.236   6.216  10.238 -0.2531  0.3516 -0.4104
   37HTM   C182 2840  10.212   6.230  10.104  0.2304  0.4029 -0.4905
   37HTM   C183 2841  10.280   6.342  10.045  0.5700  0.3359 -0.2351
   37HTM   C184 2842  10.354   6.414  10.133  0.3453  0.2336  0.0396
   37HTM    S19 2843  10.345   6.345  10.300 -0.3178  0.2136 -0.0033
   38TAL   C185 2844  10.268   6.375   9.901  0.3758 -0.0650  0.2035
   38TAL   C186 2845  10.131   6.348   9.829 -0.2228  0.7335 -0.0118
   38TAL   C187 2846  10.011   6.416   9.891  0.3246  0.0171 -0.6729
   38TAL   C188 2847   9.879   6.370   9.835  0.2937 -0.1788  0.6925
   38TAL   C189 2848   9.755   6.381   9.929 -0.1426 -0.1113 -0.4027
   38TAL   C190 2849   9.633   6.338   9.856  0.1529 -0.2396 -0.1537
   39HTM   C191 2850  10.454   6.519  10.118 -0.0601  0.2516 -0.1583
   39HTM   C192 2851  10.437   6.651  10.087  0.0129  0.3705  0.3102
   39HTM   C193 2852  10.559   6.727  10.089  0.0730  0.2718  0.4591
   39HTM   C194 2853  10.669   6.653  10.120  0.0459  0.0775  0.1041
   39HTM    S20 2854  10.627   6.480  10.151 -0.0584  0.0032 -0.4500
   40TAL   C195 2855  10.567   6.876  10.060 -0.5372 -0.1243 -0.2455
   40TAL   C196 2856  10.441   6.941  10.007  0.1910 -0.2179  0.1713
   40TAL   C197 2857  10.444   7.091   9.974  0.2829 -0.9019  0.3674
   40TAL   C198 2858  10.528   7.199  10.045 -0.8449  0.2359  0.8549
   40TAL   C199 2859  10.483   7.335   9.999 -0.1399  0.5763  0.4196
   40TAL   C200 2860  10.557   7.452  10.062  0.3357  0.1507 -0.2295
   41HTM   C201 2861  10.809   6.688  10.140  0.4382 -0.1066 -0.1040
   41HTM   C202 2862  10.895   6.609  10.211  0.6818  0.1004 -0.1670
   41HTM   C203 2863  11.027   6.665  10.225  0.5438  0.4432 -0.2235
   41HTM   C204 2864  11.042   6.786  10.164  0.1950  0.4971 -0.2038
   41HTM    S21 2865  10.889   6.840  10.085  0.0126  0.1162 -0.1114
   42TAL   C205 2866  11.125   6.587  10.303 -0.7358 -0.1750  0.0145
   42TAL   C206 2867  11.210   6.494  10.211  0.3247  1.0957  0.6575
   42TAL   C207 2868  11.310   6.399  10.276  0.0268 -0.0799 -0.5859
   42TAL   C208 2869  11.398   6.308  10.181  0.0455 -0.4414 -1.2822
   42TAL   C209 2870  11.473   6.388  10.075 -1.2224 -0.1687 -0.5949
   42TAL   C210 2871  11.584   6.309  10.014 -0.1005 -0.3549  0.0147
   43HTM   C211 2872  11.155   6.868  10.133  0.1637  0.1354  0.0299
   43HTM   C212 2873  11.255   6.895  10.222  0.6524  0.0043 -0.4708
   43HTM   C213 2874  11.336   7.008  10.185  0.6688 -0.1523 -0.9233
   43HTM   C214 2875  11.299   7.067  10.068  0.1924 -0.1411 -0.7675
   43HTM    S22 2876  11.157   6.984   9.995 -0.3176  0.0702 -0.0316
   44TAL   C215 2877  11.449   7.050  10.275 -0.1758 -0.3742 -0.2403
   44TAL   C216 2878  11.570   6.967  10.281  0.0081  0.1327 -1.1565
   44TAL   C217 2879  11.654   6.980  10.155 -0.1362  0.5537 -0.2123
   44TAL   C218 2880  11.781   6.903  10.154 -0.1098 -0.4351 -0.0317
   44TAL   C219 2881  11.794   6.755  10.187 -0.2026 -0.5781 -0.8033
   44TAL   C220 2882  11.722   6.654  10.100 -0.7626  0.3840 -0.2836
   45HTM   C221 2883  11.350   7.174   9.985  0.0359 -0.5113 -0.2698
   45HTM   C222 2884  11.301   7.197   9.860  0.2662 -0.7491 -0.4056
   45HTM   C223 2885  11.363   7.309   9.794  0.1345 -0.6483 -0.3599
   45HTM   C224 2886  11.460   7.370   9.868 -0.1962 -0.3336 -0.1893
   45HTM    S23 2887  11.479   7.291  10.029 -0.3682 -0.1387 -0.0722
   46TAL   C225 2888  11.325   7.348   9.651  0.2322  0.4928 -0.5379
   46TAL   C226 2889  11.299   7.242   9.534 -0.3259  0.1621 -0.0193
   46TAL   C227 2890  11.193   7.131   9.560  0.0835 -0.1604 -0.8028
   46TAL   C228 2891  11.143   7.059   9.437 -0.2499  0.3531 -0.3648
   46TAL   C229 2892  11.032   6.967   9.480 -0.5545  0.8771  0.2838
   46TAL   C230 2893  10.978   6.885   9.368  0.4015 -0.0328  0.0114
   47HTM   C231 2894  11.552   7.482   9.837  0.2161 -0.1680 -0.4353
   47HTM   C232 2895  11.529   7.613   9.810  0.1140 -0.1895 -0.4527
   47HTM   C233 2896  11.647   7.687   9.776  0.1144 -0.0150 -0.0781
   47HTM   C234 2897  11.761   7.612   9.776  0.2167  0.1391  0.2249
   47HTM    S24 2898  11.727   7.441   9.820  0.3215  0.0757  0.0592
   48TAL   C235 2899  11.649   7.825   9.722 -0.0407 -0.0857  0.2489
   48TAL   C236 2900  11.573   7.949   9.772 -0.2369 -0.4327  0.3862
   48TAL   C237 2901  11.580   8.008   9.920  0.6262 -0.0641  0.2768
   48TAL   C238 2902  11.701   7.986  10.010 -0.4204  0.6131 -0.0778
   48TAL   C239 2903  11.679   8.039  10.153  1.0395  0.4908  1.1626
   48TAL   C240 2904  11.789   8.021  10.249  0.0857 -0.1767 -0.2706
    1HTM     C1 2905   6.689   6.354   3.509 -0.1318  0.1774 -0.0627
    1HTM     C2 2906   6.747   6.244   3.566 -0.3831  0.0155 -0.1172
    1HTM     C3 2907   6.891   6.251   3.571 -0.3610 -0.3698 -0.2208
    1HTM     C4 2908   6.943   6.365   3.518 -0.0929 -0.5019 -0.2454
    1HTM     S1 2909   6.813   6.475   3.457  0.1546 -0.1469 -0.1388
    2TAL     C5 2910   6.963   6.116   3.618  0.5036 -0.4678 -0.1888
    2TAL     C6 2911   7.051   6.129   3.748 -0.6783  0.1523 -0.0576
    2TAL     C7 2912   7.113   5.998   3.796  0.1133 -0.2210  0.1204
    2TAL     C8 2913   7.014   5.890   3.851 -0.0099  0.2875  0.7283
    2TAL     C9 2914   7.079   5.768   3.917 -0.3366  0.7190 -0.1712
    2TAL    C10 2915   6.981   5.674   3.983  0.1618 -0.2689  0.1796
    3HTM    C11 2916   7.082   6.404   3.501 -0.1735  0.6252 -0.1795
    3HTM    C12 2917   7.136   6.428   3.378  0.0031  0.4067 -0.1452
    3HTM    C13 2918   7.278   6.452   3.380  0.0339  0.2143 -0.0076
    3HTM    C14 2919   7.332   6.446   3.505 -0.1199  0.2867  0.0629
    3HTM     S2 2920   7.208   6.410   3.630 -0.3160  0.6054 -0.0397
    4TAL    C15 2921   7.349   6.487   3.245 -0.4924 -0.9958  0.2020
    4TAL    C16 2922   7.344   6.631   3.193  0.7014 -0.1798  0.0135
    4TAL    C17 2923   7.413   6.669   3.059  0.0867 -0.6810  1.0243
    4TAL    C18 2924   7.565   6.687   3.050 -0.2912  0.2547  0.0269
    4TAL    C19 2925   7.638   6.556   3.052 -0.4600  0.0779  0.2076
    4TAL    C20 2926   7.788   6.567   3.062  0.9597 -0.8895 -0.9156
    5HTM    C21 2927   7.467   6.475   3.551  0.2190  0.1019 -0.0614
    5HTM    C22 2928   7.500   6.481   3.684  0.1957 -0.5152 -0.0250
    5HTM    C23 2929   7.642   6.483   3.707  0.1941 -1.0593  0.0298
    5HTM    C24 2930   7.717   6.478   3.593  0.2159 -0.8573  0.0354
    5HTM     S3 2931   7.613   6.471   3.446  0.2408  0.0429 -0.0290
    6TAL    C25 2932   7.703   6.483   3.844  0.5745  0.2292  0.1509
    6TAL    C26 2933   7.629   6.408   3.963 -0.1151 -0.7286 -0.0109
    6TAL    C27 2934   7.525   6.497   4.020  1.0607 -0.4886  0.0738
    6TAL    C28 2935   7.441   6.443   4.138 -0.0474 -0.8992  0.0510
    6TAL    C29 2936   7.368   6.312   4.111  0.1976  0.4063  0.0914
    6TAL    C30 2937   7.263   6.326   4.004 -0.3056  0.1717  0.4929
    7HTM    C31 2938   7.862   6.486   3.573 -0.1378  0.1890  0.4566
    7HTM    C32 2939   7.920   6.533   3.459 -0.2334  0.4494  0.5143
    7HTM    C33 2940   8.064   6.533   3.463 -0.2284  0.3123  0.3418
    7HTM    C34 2941   8.116   6.486   3.580 -0.1297 -0.0524  0.1528
    7HTM     S4 2942   7.986   6.438   3.695 -0.0334 -0.2530  0.1780
    8TAL    C35 2943   8.146   6.554   3.330 -0.0310 -0.1993 -0.3095
    8TAL    C36 2944   8.190   6.691   3.277 -0.3285  0.2607  0.3009
    8TAL    C37 2945   8.075   6.793   3.263 -0.2290 -0.1019 -0.0489
    8TAL    C38 2946   8.120   6.934   3.225  0.9417 -0.3870  0.5734
    8TAL    C39 2947   8.226   7.008   3.308 -0.4502  0.5293  0.1455
    8TAL    C40 2948   8.177   7.078   3.434 -0.2817 -0.2080 -0.3076
    9HTM    C41 2949   8.252   6.471   3.617 -0.0259  0.2106  0.3257
    9HTM    C42 2950   8.293   6.432   3.741  0.0052  0.4032  0.3766
    9HTM    C43 2951   8.435   6.441   3.761  0.0157  0.3781  0.3073
    9HTM    C44 2952   8.503   6.487   3.652 -0.0062  0.1662  0.2037
    9HTM     S5 2953   8.391   6.523   3.515 -0.0432 -0.0192  0.1853
   10TAL    C45 2954   8.493   6.410   3.896 -0.1465  0.0498  0.4615
   10TAL    C46 2955   8.599   6.497   3.962 -0.3720 -0.5310 -0.0059
   10TAL    C47 2956   8.562   6.643   3.981 -0.2223  0.4910 -0.4515
   10TAL    C48 2957   8.675   6.734   4.024  0.2813 -0.6393 -0.3464
   10TAL    C49 2958   8.634   6.885   4.025  0.0303  0.5669  0.4637
   10TAL    C50 2959   8.747   6.965   4.080 -0.7659 -0.2732 -0.5988
   11HTM    C51 2960   8.644   6.507   3.620  0.2666  0.2726  0.1845
   11HTM    C52 2961   8.702   6.629   3.605  0.4182  0.1705 -0.0774
   11HTM    C53 2962   8.833   6.625   3.546  0.2370 -0.0825 -0.4699
   11HTM    C54 2963   8.876   6.499   3.517 -0.0527 -0.1729 -0.5072
   11HTM     S6 2964   8.753   6.375   3.561 -0.1194  0.0557 -0.0461
   12TAL    C55 2965   8.915   6.752   3.505 -0.0361  0.4854 -0.2357
   12TAL    C56 2966   8.842   6.888   3.495  0.0607  0.0474 -0.3558
   12TAL    C57 2967   8.757   6.912   3.378 -0.0594 -0.3845 -0.1586
   12TAL    C58 2968   8.739   7.064   3.385  0.7782  0.1318  0.2025
   12TAL    C59 2969   8.620   7.124   3.312 -0.1132  0.5542  0.5096
   12TAL    C60 2970   8.609   7.272   3.333  0.3386  0.2097  0.4812
   13HTM    C61 2971   8.996   6.439   3.460 -0.1626 -0.1067  0.3119
   13HTM    C62 2972   9.095   6.506   3.394 -0.1476 -0.0443  0.3989
   13HTM    C63 2973   9.198   6.421   3.340 -0.2385 -0.0088  0.1693
   13HTM    C64 2974   9.177   6.288   3.364 -0.3228 -0.0439 -0.0925
   13HTM     S7 2975   9.025   6.261   3.458 -0.2937 -0.1256 -0.0696
   14TAL    C65 2976   9.303   6.496   3.265  0.0944 -0.3858  0.8280
   14TAL    C66 2977   9.433   6.507   3.344 -0.3123 -0.2990  0.0021
   14TAL    C67 2978   9.548   6.562   3.253  0.4038  0.0953 -0.2327
   14TAL    C68 2979   9.602   6.448   3.170 -1.0644 -0.4613  0.4711
   14TAL    C69 2980   9.731   6.474   3.086 -0.1524  0.2633  1.2005
   14TAL    C70 2981   9.784   6.353   3.011  0.1704  1.0598 -0.4277
   15HTM    C71 2982   9.249   6.172   3.320 -0.1609 -0.2588 -0.1278
   15HTM    C72 2983   9.232   6.043   3.361  0.0701 -0.2899 -0.1249
   15HTM    C73 2984   9.326   5.951   3.303  0.3430 -0.0944  0.0092
   15HTM    C74 2985   9.416   6.010   3.219  0.3199  0.0851  0.1089
   15HTM     S8 2986   9.387   6.187   3.205 -0.0510  0.0212  0.0404
   16TAL    C75 2987   9.338   5.801   3.350  0.0355 -0.1761 -0.2008
   16TAL    C76 2988   9.401   5.771   3.488  0.1192 -0.0273 -0.0049
   16TAL    C77 2989   9.408   5.630   3.530  0.2745  0.1867  0.2431
   16TAL    C78 2990   9.284   5.558   3.570  0.4142  0.1848 -0.2693
   16TAL    C79 2991   9.264   5.584   3.723 -0.2972 -0.4334 -0.4377
   16TAL    C80 2992   9.123   5.568   3.779 -0.0468 -0.0330 -0.0042
   17HTM    C81 2993   9.525   5.950   3.131  0.0494  0.1501 -0.3768
   17HTM    C82 2994   9.634   6.014   3.082 -0.2987  0.2735 -1.0049
   17HTM    C83 2995   9.724   5.928   3.009 -0.4033  0.2830 -1.1441
   17HTM    C84 2996   9.682   5.798   3.002 -0.1351  0.1665 -0.6223
   17HTM     S9 2997   9.526   5.774   3.088  0.2738  0.0353  0.0911
   18TAL    C85 2998   9.850   5.985   2.953  0.1182 -0.3844  0.9196
   18TAL    C86 2999   9.959   6.021   3.063 -0.1311 -0.2421 -0.5366
   18TAL    C87 3000  10.091   6.085   3.012  0.7684 -0.1143 -0.0220
   18TAL    C88 3001  10.169   6.010   2.899  0.2025 -0.3750 -0.0643
   18TAL    C89 3002  10.232   5.875   2.930  0.4549 -0.1090  0.1401
   18TAL    C90 3003  10.321   5.841   2.815  0.4736  0.0304 -0.3828
   19HTM    C91 3004   9.739   5.671   2.948  0.1265 -0.0125 -0.1799
   19HTM    C92 3005   9.844   5.653   2.864  0.0112 -0.0572 -0.3150
   19HTM    C93 3006   9.866   5.516   2.827 -0.1081 -0.0641 -0.3608
   19HTM    C94 3007   9.777   5.429   2.883 -0.0837 -0.0247 -0.2610
   19HTM    S10 3008   9.658   5.515   2.988  0.0931  0.0248 -0.1001
   20TAL    C95 3009   9.973   5.485   2.715 -0.2138 -0.7187 -0.6079
   20TAL    C96 3010  10.071   5.597   2.666 -0.1100  0.4713 -0.0431
   20TAL    C97 3011  10.171   5.553   2.560  0.1483  0.1359 -0.5423
   20TAL    C98 3012  10.248   5.662   2.482  0.5144 -0.3250  0.0803
   20TAL    C99 3013  10.357   5.605   2.397  0.0771  0.1786  0.3432
   20TAL   C100 3014  10.439   5.723   2.357 -0.1334 -0.3715 -0.0155
   21HTM   C101 3015   9.764   5.287   2.874 -0.4190 -0.4541  0.2686
   21HTM   C102 3016   9.649   5.215   2.889 -0.3127 -0.5696  0.5319
   21HTM   C103 3017   9.666   5.073   2.874 -0.2254 -0.5431  0.3911
   21HTM   C104 3018   9.794   5.036   2.846 -0.2651 -0.4082  0.0205
   21HTM    S11 3019   9.904   5.179   2.838 -0.4170 -0.3024 -0.1811
   22TAL   C105 3020   9.553   4.970   2.868 -0.1218 -0.4414  0.6508
   22TAL   C106 3021   9.423   4.990   2.951  0.3846 -0.6527  0.8088
   22TAL   C107 3022   9.430   4.965   3.095 -0.9838  0.0731 -0.6661
   22TAL   C108 3023   9.501   4.839   3.146 -0.2428 -0.1368  0.5943
   22TAL   C109 3024   9.465   4.700   3.078 -0.4126 -0.5242  0.4365
   22TAL   C110 3025   9.494   4.588   3.174 -0.3083  0.4104  0.3489
   23HTM   C111 3026   9.856   4.902   2.847 -0.1476 -0.1815 -0.1676
   23HTM   C112 3027   9.802   4.784   2.889  0.0991 -0.3304 -0.2655
   23HTM   C113 3028   9.895   4.674   2.889  0.3772 -0.0958 -0.1814
   23HTM   C114 3029  10.020   4.709   2.847  0.3425  0.2317 -0.0193
   23HTM    S12 3030  10.030   4.884   2.805 -0.0471  0.2701  0.0402
   24TAL   C115 3031   9.841   4.547   2.945 -0.1423 -0.0565 -0.2341
   24TAL   C116 3032   9.890   4.506   3.083 -0.5921  0.6453 -0.4013
   24TAL   C117 3033   9.862   4.360   3.111  0.1555  0.0684  0.5599
   24TAL   C118 3034   9.914   4.258   3.011  0.1326  0.3532 -0.0618
   24TAL   C119 3035   9.891   4.114   3.041 -0.8939 -0.1019  0.0296
   24TAL   C120 3036   9.915   4.025   2.923 -0.6246  0.2490 -0.8034
   25HTM   C121 3037  10.132   4.627   2.824 -0.1510 -0.2828  0.3766
   25HTM   C122 3038  10.255   4.672   2.785 -0.0514 -0.1593  0.8329
   25HTM   C123 3039  10.351   4.567   2.761  0.0423 -0.0782  0.8482
   25HTM   C124 3040  10.300   4.442   2.782  0.0142 -0.1399  0.4036
   25HTM    S13 3041  10.127   4.447   2.833 -0.1340 -0.3067 -0.0726
   26TAL   C125 3042  10.487   4.590   2.694 -0.3193 -0.0618 -0.3232
   26TAL   C126 3043  10.566   4.724   2.694  0.8364 -0.0659  0.1390
   26TAL   C127 3044  10.613   4.792   2.820 -0.1909 -0.1384  0.1162
   26TAL   C128 3045  10.676   4.930   2.814  0.3413  0.1707  0.2980
   26TAL   C129 3046  10.679   4.998   2.949 -0.6836  0.0844 -0.2142
   26TAL   C130 3047  10.755   5.129   2.948  0.5745 -0.3387 -0.3604
   27HTM   C131 3048  10.363   4.304   2.776  0.2642  0.2059  0.1776
   27HTM   C132 3049  10.294   4.192   2.814  0.2888  0.3090  0.5344
   27HTM   C133 3050  10.378   4.077   2.834  0.2880  0.3343  0.6837
   27HTM   C134 3051  10.511   4.101   2.811  0.2629  0.2501  0.4407
   27HTM    S14 3052  10.540   4.272   2.763  0.2380  0.1318  0.0012
   28TAL   C135 3053  10.321   3.931   2.860 -0.2952  0.0355 -0.1512
   28TAL   C136 3054  10.246   3.904   2.985  0.0468  0.7048 -0.3125
   28TAL   C137 3055  10.193   3.756   2.991 -0.2348  0.1955 -0.3689
   28TAL   C138 3056  10.114   3.715   3.113  0.1936 -0.2785 -0.2982
   28TAL   C139 3057  10.070   3.572   3.097  0.0392 -0.0830 -0.6173
   28TAL   C140 3058  10.167   3.450   3.075 -0.4001 -0.0270 -0.6500
   29HTM   C141 3059  10.628   4.022   2.834  0.1591  0.1217  0.1283
   29HTM   C142 3060  10.752   4.079   2.826  0.1436  0.1402  0.0056
   29HTM   C143 3061  10.858   3.993   2.873  0.2356  0.0514 -0.3613
   29HTM   C144 3062  10.814   3.871   2.916  0.3213 -0.0346 -0.5182
   29HTM    S15 3063  10.635   3.855   2.901  0.2922 -0.0098 -0.2123
   30TAL   C145 3064  11.001   4.047   2.871 -0.0414 -0.4846  0.2816
   30TAL   C146 3065  11.041   4.152   2.770  0.2311 -0.0266 -0.3880
   30TAL   C147 3066  11.167   4.223   2.803  0.6385 -0.0856 -1.0534
   30TAL   C148 3067  11.159   4.363   2.741 -1.1914  0.2232 -0.6280
   30TAL   C149 3068  11.246   4.472   2.800 -0.1833  0.3631  0.0592
   30TAL   C150 3069  11.177   4.605   2.792  0.2459  0.2928  0.1316
   31HTM   C151 3070  10.889   3.761   2.963  0.5607  0.5627 -0.2618
   31HTM   C152 3071  10.857   3.630   2.949  0.3595  0.6683 -0.8069
   31HTM   C153 3072  10.948   3.540   3.014 -0.0024  0.2781 -0.8318
   31HTM   C154 3073  11.051   3.603   3.078 -0.0771 -0.1247 -0.3055
   31HTM    S16 3074  11.040   3.782   3.060  0.3066 -0.0420  0.2665
   32TAL   C155 3075  10.933   3.388   3.005  0.6323  0.0485  0.0915
   32TAL   C156 3076  10.791   3.328   3.026  0.3345  0.2042  0.5134
   32TAL   C157 3077  10.779   3.169   3.035  0.0978 -0.2522 -0.1323
   32TAL   C158 3078  10.853   3.097   3.147 -0.2436 -0.3069 -0.5863
   32TAL   C159 3079  10.805   2.957   3.169  0.3173  0.6088  0.4502
   32TAL   C160 3080  10.887   2.892   3.282  0.3118 -0.0397 -0.2047
   33HTM   C161 3081  11.170   3.544   3.143  0.1077  0.0271 -0.3325
   33HTM   C162 3082  11.250   3.440   3.105  0.1903  0.1599 -0.5226
   33HTM   C163 3083  11.368   3.424   3.186  0.1498  0.0418 -0.4861
   33HTM   C164 3084  11.378   3.516   3.286  0.0365 -0.1811 -0.2683
   33HTM    S17 3085  11.239   3.631   3.285 -0.0287 -0.2598 -0.0908
   34TAL   C165 3086  11.470   3.315   3.179 -1.0424 -0.0712 -0.1130
   34TAL   C166 3087  11.521   3.262   3.049 -0.0712  0.5279 -0.4847
   34TAL   C167 3088  11.633   3.161   3.060  0.5122 -0.0627  0.2043
   34TAL   C168 3089  11.631   3.048   2.955 -0.1926 -0.2890  0.3084
   34TAL   C169 3090  11.744   2.951   2.980  0.2968  1.1520  0.7715
   34TAL   C170 3091  11.889   2.998   2.955  0.2209  0.0440 -0.1699
   35HTM   C171 3092  11.478   3.550   3.388 -0.1998 -0.0197 -0.1381
   35HTM   C172 3093  11.454   3.619   3.502 -0.2002 -0.0067 -0.1459
   35HTM   C173 3094  11.572   3.646   3.580 -0.2139 -0.0865 -0.0976
   35HTM   C174 3095  11.687   3.596   3.524 -0.2241 -0.1603 -0.0530
   35HTM    S18 3096  11.653   3.512   3.368 -0.2169 -0.1345 -0.0685
   36TAL   C175 3097  11.571   3.723   3.714  0.2060 -0.6793  0.2540
   36TAL   C176 3098  11.445   3.805   3.744 -0.3005 -0.8961  0.0546
   36TAL   C177 3099  11.426   3.863   3.884 -0.2183 -0.2485  0.1964
   36TAL   C178 3100  11.414   3.765   3.999  0.6839  0.5464  0.4153
   36TAL   C179 3101  11.301   3.665   4.004  0.2105  0.1487 -0.0036
   36TAL   C180 3102  11.279   3.624   4.143 -0.3814  0.1099  0.0640
   37HTM   C181 3103  11.826   3.605   3.556 -0.1005  0.0916  0.0595
   37HTM   C182 3104  11.897   3.720   3.573 -0.1954  0.1212  0.2650
   37HTM   C183 3105  12.037   3.698   3.603 -0.1554  0.1845  0.1247
   37HTM   C184 3106  12.071   3.566   3.608 -0.0299  0.2032 -0.1877
   37HTM    S19 3107  11.929   3.459   3.577  0.0483  0.1417 -0.3301
   38TAL   C185 3108  12.133   3.810   3.602  0.4802 -0.9680 -0.7708
   38TAL   C186 3109  12.096   3.953   3.568  0.0623 -0.1442 -0.0169
   38TAL   C187 3110  12.215   4.045   3.549 -0.3603 -0.0865  0.0090
   38TAL   C188 3111  12.176   4.178   3.482  0.5631  0.1938 -0.0883
   38TAL   C189 3112  12.281   4.287   3.459  0.5637  0.0059 -0.2517
   38TAL   C190 3113  12.242   4.421   3.413  0.1676  0.0764  0.1750
   39HTM   C191 3114  12.198   3.504   3.637 -0.5290  0.2996  0.1648
   39HTM   C192 3115  12.218   3.370   3.653 -0.7012  0.2900  0.3042
   39HTM   C193 3116  12.352   3.336   3.694 -0.6902  0.1458  0.1489
   39HTM   C194 3117  12.434   3.444   3.709 -0.5100  0.0456 -0.1088
   39HTM    S20 3118  12.348   3.598   3.672 -0.3386  0.1262 -0.1760
   40TAL   C195 3119  12.390   3.191   3.729  0.2363  0.1210 -0.1738
   40TAL   C196 3120  12.314   3.072   3.669 -0.6047 -0.6517  0.0124
   40TAL   C197 3121  12.353   2.927   3.718  0.0121 -0.2456 -0.0562
   40TAL   C198 3122  12.252   2.826   3.664 -0.2348 -0.4695  0.0314
   40TAL   C199 3123  12.102   2.843   3.689 -0.0873 -0.1056 -0.0513
   40TAL   C200 3124  12.014   2.721   3.659 -0.6645 -0.7851  0.3305
   41HTM   C201 3125  12.574   3.453   3.729 -0.2122  0.0795  0.1999
   41HTM   C202 3126  12.659   3.358   3.778 -0.3986  0.1324  0.6400
   41HTM   C203 3127  12.796   3.402   3.785 -0.3422 -0.0381  0.6176
   41HTM   C204 3128  12.815   3.530   3.742 -0.1129 -0.2212  0.1602
   41HTM    S21 3129  12.660   3.606   3.689  0.0507 -0.1922 -0.2810
   42TAL   C205 3130  12.906   3.305   3.832 -0.1405 -0.0499  0.0533
   42TAL   C206 3131  12.913   3.159   3.782  0.5435 -0.2299  0.4121
   42TAL   C207 3132  12.792   3.072   3.831 -0.3199  0.2805  0.5376
   42TAL   C208 3133  12.817   2.936   3.759 -0.2549 -0.4115  0.0482
   42TAL   C209 3134  12.700   2.848   3.781 -0.0218  0.1705 -0.6203
   42TAL   C210 3135  12.717   2.709   3.715 -0.1012 -1.0272 -0.2184
   43HTM   C211 3136  12.933   3.615   3.726 -0.4426 -0.0025 -0.3091
   43HTM   C212 3137  12.935   3.751   3.736 -0.4251 -0.0001 -0.3492
   43HTM   C213 3138  13.065   3.809   3.714 -0.3252 -0.0571  0.0952
   43HTM   C214 3139  13.162   3.717   3.689 -0.2665 -0.1031  0.4742
   43HTM    S22 3140  13.096   3.549   3.689 -0.3333 -0.0778  0.2979
   44TAL   C215 3141  13.081   3.958   3.706  0.1267 -0.2458  0.1212
   44TAL   C216 3142  13.139   4.045   3.819  0.3172 -0.0643 -0.1280
   44TAL   C217 3143  13.288   4.035   3.827 -0.5265 -0.1429 -0.2777
   44TAL   C218 3144  13.354   4.135   3.919  0.0721  0.3615 -0.0582
   44TAL   C219 3145  13.502   4.095   3.969 -0.1841  0.2024  0.6499
   44TAL   C220 3146  13.542   3.961   4.030 -0.4483 -0.0401  0.0843
   45HTM   C221 3147  13.303   3.734   3.654 -0.2278 -0.1948 -0.0150
   45HTM   C222 3148  13.359   3.776   3.537 -0.2351 -0.0684  0.0273
   45HTM   C223 3149  13.502   3.791   3.543 -0.2499  0.0583  0.0749
   45HTM   C224 3150  13.556   3.760   3.664 -0.2536  0.0283  0.0688
   45HTM    S23 3151  13.428   3.708   3.781 -0.2387 -0.1634  0.0020
   46TAL   C225 3152  13.590   3.851   3.432  0.1774 -0.1684 -0.0124
   46TAL   C226 3153  13.534   3.965   3.343  0.0115  0.0241 -0.6373
   46TAL   C227 3154  13.641   4.012   3.249 -0.4007 -0.2931 -0.0014
   46TAL   C228 3155  13.753   4.089   3.321 -0.0691 -0.4016  0.2800
   46TAL   C229 3156  13.864   4.152   3.231  0.2058 -0.6286  0.1459
   46TAL   C230 3157  13.969   4.221   3.314  0.2478 -0.0426 -0.1690
   47HTM   C231 3158  13.694   3.759   3.720  0.0793  0.3528  0.1823
   47HTM   C232 3159  13.771   3.869   3.744  0.1199  0.2705  0.4288
   47HTM   C233 3160  13.905   3.838   3.784  0.0465  0.1291  0.5655
   47HTM   C234 3161  13.931   3.704   3.790 -0.0502  0.1036  0.4231
   47HTM    S24 3162  13.786   3.606   3.746 -0.0561  0.2574  0.1029
   48TAL   C235 3163  14.020   3.937   3.819  0.4099 -0.0774  0.2207
   48TAL   C236 3164  14.071   4.038   3.719 -0.3010  0.1907  0.5377
   48TAL   C237 3165  14.204   4.106   3.754 -0.0023  0.2234 -0.1217
   48TAL   C238 3166  14.229   4.224   3.661  0.3499  0.4941 -0.5532
   48TAL   C239 3167  14.369   4.279   3.664  0.1987 -0.1125  0.5101
   48TAL   C240 3168  14.391   4.385   3.564 -0.2628 -0.0103  0.1428
    1HTM     C1 3169   1.442   7.700   6.981  0.0154  0.0311 -0.5051
    1HTM     C2 3170   1.433   7.666   6.849 -0.2503  0.2131 -0.5357
    1HTM     C3 3171   1.308   7.703   6.787 -0.3997  0.2437 -0.2160
    1HTM     C4 3172   1.222   7.767   6.872 -0.2479  0.0850  0.0586
    1HTM     S1 3173   1.292   7.784   7.037  0.0980 -0.1172 -0.0667
    2TAL     C5 3174   1.270   7.648   6.651 -0.7699 -0.3817  0.2007
    2TAL     C6 3175   1.299   7.503   6.629 -0.2343  0.7727 -0.0227
    2TAL     C7 3176   1.232   7.458   6.499 -0.4114 -0.6465 -0.2926
    2TAL     C8 3177   1.231   7.309   6.488  0.2635 -0.2254  0.1214
    2TAL     C9 3178   1.206   7.253   6.350 -0.9920 -0.0149  0.3295
    2TAL    C10 3179   1.188   7.100   6.349 -0.3096 -0.5610  0.1375
    3HTM    C11 3180   1.095   7.835   6.846 -0.0161  0.1856  0.2338
    3HTM    C12 3181   1.005   7.802   6.749  0.3039  0.3083 -0.1082
    3HTM    C13 3182   0.890   7.889   6.746  0.3857  0.4058 -0.4811
    3HTM    C14 3183   0.892   7.987   6.841  0.1280  0.3573 -0.4235
    3HTM     S2 3184   1.041   7.978   6.942 -0.2407  0.1835  0.1102
    4TAL    C15 3185   0.772   7.869   6.657 -0.6484 -0.5283  0.4188
    4TAL    C16 3186   0.693   7.742   6.699 -0.2789 -0.0562  0.3426
    4TAL    C17 3187   0.567   7.716   6.612  0.1644 -0.1267  0.1996
    4TAL    C18 3188   0.445   7.673   6.686 -0.0712  0.2662 -0.3819
    4TAL    C19 3189   0.351   7.611   6.582 -0.1356  0.3230 -0.5695
    4TAL    C20 3190   0.230   7.558   6.657  0.6772 -0.0445 -0.2315
    5HTM    C21 3191   0.807   8.103   6.868  0.1061 -0.4797  0.1889
    5HTM    C22 3192   0.848   8.221   6.922  0.5947 -0.8001  0.5355
    5HTM    C23 3193   0.739   8.312   6.951  0.9706 -0.4106  0.7339
    5HTM    C24 3194   0.616   8.262   6.919  0.7686  0.2076  0.5382
    5HTM     S3 3195   0.628   8.096   6.849  0.0826  0.3462  0.0849
    6TAL    C25 3196   0.756   8.453   7.006 -0.3115 -0.0268 -0.4888
    6TAL    C26 3197   0.898   8.496   7.045 -0.8565 -0.4508 -0.6350
    6TAL    C27 3198   0.889   8.635   7.112  0.9507 -0.0682 -0.3892
    6TAL    C28 3199   1.021   8.697   7.152 -0.2306 -0.4322 -0.4430
    6TAL    C29 3200   1.004   8.833   7.213 -0.3239  0.1373 -0.3462
    6TAL    C30 3201   1.136   8.874   7.290  0.6944  0.4726 -0.4221
    7HTM    C31 3202   0.485   8.312   6.959  0.0508 -0.2598  0.1559
    7HTM    C32 3203   0.384   8.231   7.002 -0.0134 -0.2341  0.0527
    7HTM    C33 3204   0.256   8.298   7.012 -0.0035 -0.1974 -0.0618
    7HTM    C34 3205   0.260   8.430   6.977  0.0681 -0.1961 -0.0463
    7HTM     S4 3206   0.426   8.480   6.928  0.1292 -0.2404  0.1160
    8TAL    C35 3207   0.131   8.219   7.058 -0.3002 -0.2396 -0.0718
    8TAL    C36 3208   0.102   8.095   6.971  0.5764  0.5735 -0.0215
    8TAL    C37 3209   0.037   8.111   6.834  0.5681 -0.1784 -0.6064
    8TAL    C38 3210  -0.109   8.163   6.846 -0.1271 -0.0481  0.1940
    8TAL    C39 3211  -0.156   8.199   6.706  0.4781  0.0722  0.1029
    8TAL    C40 3212  -0.293   8.261   6.697  0.5428 -0.3105 -0.1185
    9HTM    C41 3213   0.162   8.534   6.970 -0.1782 -0.0265  0.4907
    9HTM    C42 3214   0.158   8.653   7.037 -0.3749 -0.1431  0.6881
    9HTM    C43 3215   0.036   8.726   7.017 -0.3989 -0.2022  0.6175
    9HTM    C44 3216  -0.053   8.663   6.935 -0.2207 -0.1306  0.3664
    9HTM     S5 3217   0.011   8.505   6.877 -0.0068  0.0182  0.1985
   10TAL    C45 3218   0.011   8.863   7.081 -0.3183 -0.1261  0.5017
   10TAL    C46 3219   0.117   8.922   7.176  0.2623 -0.3355 -0.3845
   10TAL    C47 3220   0.231   8.987   7.109  0.0280 -0.1176  0.2542
   10TAL    C48 3221   0.321   9.067   7.202 -0.1792  1.0103 -0.0961
   10TAL    C49 3222   0.448   9.133   7.135  0.0519 -0.0765 -0.3829
   10TAL    C50 3223   0.547   9.188   7.243  0.6649  0.4749 -0.8545
   11HTM    C51 3224  -0.176   8.714   6.879  0.4505 -0.0261 -0.1490
   11HTM    C52 3225  -0.224   8.674   6.757  0.5803 -0.0019 -0.2084
   11HTM    C53 3226  -0.332   8.756   6.708  0.5441 -0.0715 -0.2470
   11HTM    C54 3227  -0.366   8.858   6.792  0.3872 -0.1491 -0.2170
   11HTM     S6 3228  -0.264   8.858   6.941  0.2715 -0.1400 -0.1372
   12TAL    C55 3229  -0.405   8.728   6.578  0.1562  0.5753  0.3069
   12TAL    C56 3230  -0.507   8.609   6.577 -0.5860  0.3925 -0.0970
   12TAL    C57 3231  -0.626   8.624   6.669  0.1956  0.2601 -0.3934
   12TAL    C58 3232  -0.721   8.509   6.695 -0.8165 -0.8851  0.5138
   12TAL    C59 3233  -0.662   8.385   6.757  0.8361  0.0560 -0.4222
   12TAL    C60 3234  -0.753   8.262   6.738  0.2634  0.6699 -0.3711
   13HTM    C61 3235  -0.457   8.965   6.796  0.5585  0.0434  0.5599
   13HTM    C62 3236  -0.575   8.975   6.863  0.6886 -0.0052  0.7958
   13HTM    C63 3237  -0.633   9.107   6.860  0.4373 -0.1202  0.5884
   13HTM    C64 3238  -0.559   9.197   6.790  0.1148 -0.1602  0.1944
   13HTM     S7 3239  -0.410   9.122   6.722  0.1043 -0.0540  0.0536
   14TAL    C65 3240  -0.767   9.129   6.915  0.6586 -0.3748  0.1235
   14TAL    C66 3241  -0.885   9.083   6.835  0.3383  0.2663 -0.0527
   14TAL    C67 3242  -1.013   9.142   6.890  0.1057  0.0372  0.3862
   14TAL    C68 3243  -1.039   9.279   6.832  0.7147  0.4759  0.1488
   14TAL    C69 3244  -1.164   9.352   6.873  0.4289  0.1573  0.3458
   14TAL    C70 3245  -1.188   9.493   6.825  0.1397 -0.4618  0.3214
   15HTM    C71 3246  -0.571   9.343   6.786 -0.0852 -0.0453 -0.7799
   15HTM    C72 3247  -0.471   9.424   6.830  0.0987 -0.2626 -0.7946
   15HTM    C73 3248  -0.508   9.563   6.838  0.2627 -0.2433 -0.3588
   15HTM    C74 3249  -0.637   9.587   6.801  0.2042 -0.0113 -0.0114
   15HTM     S8 3250  -0.722   9.436   6.751 -0.0660  0.2025 -0.2093
   16TAL    C75 3251  -0.404   9.655   6.879  0.8983  0.7124  0.0054
   16TAL    C76 3252  -0.429   9.784   6.959  0.2304 -0.5229  0.4283
   16TAL    C77 3253  -0.502   9.776   7.091 -0.2906  0.9134 -0.2404
   16TAL    C78 3254  -0.413   9.779   7.214  0.1741 -0.3459 -0.5388
   16TAL    C79 3255  -0.352   9.649   7.259 -0.3062  0.0588  0.4688
   16TAL    C80 3256  -0.278   9.655   7.390 -0.3232 -0.3543 -0.1499
   17HTM    C81 3257  -0.714   9.709   6.802  0.2453  0.3598 -0.1015
   17HTM    C82 3258  -0.716   9.809   6.710  0.0305  0.4562  0.0069
   17HTM    C83 3259  -0.829   9.898   6.722 -0.1664  0.1930  0.0937
   17HTM    C84 3260  -0.913   9.865   6.824 -0.1017 -0.1042  0.0518
   17HTM     S9 3261  -0.856   9.718   6.913  0.2146 -0.0744 -0.1021
   18TAL    C85 3262  -0.854  10.019   6.628  0.3790  0.1979 -0.8162
   18TAL    C86 3263  -0.783  10.021   6.497 -0.5119 -0.3783 -0.1614
   18TAL    C87 3264  -0.842  10.115   6.393  0.3408 -0.3958 -0.0703
   18TAL    C88 3265  -0.840  10.263   6.402  0.8575  0.5267  0.9558
   18TAL    C89 3266  -0.894  10.324   6.276 -0.0032 -0.1962  0.1007
   18TAL    C90 3267  -0.956  10.461   6.297 -0.2290  0.0410 -0.1846
   19HTM    C91 3268  -1.046   9.918   6.851 -0.0426  0.0429  0.3097
   19HTM    C92 3269  -1.151   9.838   6.883  0.0050 -0.0954  0.1152
   19HTM    C93 3270  -1.274   9.909   6.904 -0.1137 -0.2515 -0.0489
   19HTM    C94 3271  -1.263  10.044   6.889 -0.2517 -0.2323  0.0202
   19HTM    S10 3272  -1.095  10.092   6.846 -0.2425 -0.0138  0.3000
   20TAL    C95 3273  -1.408   9.826   6.931  0.3478  0.5827 -0.0853
   20TAL    C96 3274  -1.455   9.717   6.826 -0.4402 -1.2357 -0.0564
   20TAL    C97 3275  -1.532   9.759   6.698 -0.4150 -0.2030 -0.9195
   20TAL    C98 3276  -1.676   9.779   6.720 -0.0746  0.2089  0.6051
   20TAL    C99 3277  -1.752   9.810   6.590 -0.3448  0.3095 -0.4406
   20TAL   C100 3278  -1.895   9.838   6.610 -0.1665 -0.4690 -0.6245
   21HTM   C101 3279  -1.370  10.138   6.876  0.0150 -0.1821 -0.2798
   21HTM   C102 3280  -1.413  10.235   6.961  0.3614 -0.1549 -0.1340
   21HTM   C103 3281  -1.522  10.314   6.909  0.4702  0.1441  0.0885
   21HTM   C104 3282  -1.562  10.277   6.784  0.2066  0.3449  0.1121
   21HTM    S11 3283  -1.464  10.139   6.722 -0.2027  0.1705 -0.1468
   22TAL   C105 3284  -1.577  10.436   6.980  0.3539  0.6006  0.3247
   22TAL   C106 3285  -1.535  10.462   7.123 -1.1466  0.1202 -0.3223
   22TAL   C107 3286  -1.391  10.487   7.163 -0.4270  0.2145  0.5669
   22TAL   C108 3287  -1.375  10.553   7.301 -0.1423  0.3022 -0.3318
   22TAL   C109 3288  -1.228  10.563   7.346 -0.1642  0.3208  0.1804
   22TAL   C110 3289  -1.212  10.636   7.473  0.4174 -0.5062 -0.2734
   23HTM   C111 3290  -1.672  10.319   6.696  0.1570 -0.0852  0.0325
   23HTM   C112 3291  -1.749  10.238   6.618 -0.0064  0.0157  0.0882
   23HTM   C113 3292  -1.815  10.306   6.511 -0.2177  0.1518  0.3047
   23HTM   C114 3293  -1.789  10.440   6.507 -0.2154  0.1545  0.4137
   23HTM    S12 3294  -1.677  10.490   6.639  0.0562 -0.0156  0.2501
   24TAL   C115 3295  -1.884  10.227   6.396 -0.3499  0.0508 -0.9681
   24TAL   C116 3296  -2.024  10.170   6.417 -0.4161  0.0031  0.6436
   24TAL   C117 3297  -2.118  10.195   6.292  0.3297  0.1773 -0.0941
   24TAL   C118 3298  -2.209  10.313   6.306 -0.4113  0.1549 -0.5844
   24TAL   C119 3299  -2.315  10.299   6.408  0.1759 -0.8622 -0.5108
   24TAL   C120 3300  -2.422  10.410   6.413  0.8251  0.3078  0.6804
   25HTM   C121 3301  -1.834  10.538   6.408 -0.0740  0.4164  0.4174
   25HTM   C122 3302  -1.955  10.558   6.349 -0.2303  0.6022  0.7999
   25HTM   C123 3303  -1.959  10.671   6.260 -0.3085  0.5414  0.7255
   25HTM   C124 3304  -1.840  10.737   6.251 -0.2116  0.3093  0.2867
   25HTM    S13 3305  -1.713  10.662   6.355 -0.0125  0.1482 -0.0700
   26TAL   C125 3306  -2.086  10.721   6.192  0.3933  0.3478  0.0215
   26TAL   C126 3307  -2.201  10.742   6.286 -0.7955  0.2205 -0.1855
   26TAL   C127 3308  -2.322  10.809   6.220 -0.1069  0.0781  0.1613
   26TAL   C128 3309  -2.293  10.953   6.160 -0.0138  0.2021  0.5350
   26TAL   C129 3310  -2.419  11.021   6.111 -0.0259  0.4536 -0.1386
   26TAL   C130 3311  -2.403  11.162   6.093 -0.2133  0.2208  0.5825
   27HTM   C131 3312  -1.799  10.860   6.175 -0.1633  0.0288  0.1497
   27HTM   C132 3313  -1.853  10.926   6.068 -0.3254  0.2030  0.3407
   27HTM   C133 3314  -1.782  11.045   6.031 -0.2005  0.0945  0.2306
   27HTM   C134 3315  -1.673  11.070   6.109  0.0574 -0.1624 -0.0440
   27HTM    S14 3316  -1.652  10.944   6.237  0.1628 -0.2882 -0.1859
   28TAL   C135 3317  -1.820  11.121   5.905 -0.0341  0.1991 -0.0769
   28TAL   C136 3318  -1.964  11.134   5.881  0.4495 -0.1051  0.1464
   28TAL   C137 3319  -1.973  11.221   5.754 -0.4803  0.6324 -0.0387
   28TAL   C138 3320  -2.111  11.234   5.695 -0.5519 -0.1577  0.4380
   28TAL   C139 3321  -2.214  11.311   5.786 -0.0329  0.4002  0.5213
   28TAL   C140 3322  -2.347  11.342   5.711 -0.3030 -0.5993  0.1884
   29HTM   C141 3323  -1.596  11.196   6.130 -0.2315  0.0898 -0.0918
   29HTM   C142 3324  -1.635  11.326   6.114 -0.3572  0.0921  0.2449
   29HTM   C143 3325  -1.552  11.420   6.186 -0.3612 -0.0006  0.3724
   29HTM   C144 3326  -1.450  11.362   6.255 -0.2387 -0.0738  0.1325
   29HTM    S15 3327  -1.451  11.183   6.236 -0.1072 -0.0311 -0.2760
   30TAL   C145 3328  -1.573  11.570   6.180 -0.3355 -0.2095  0.1599
   30TAL   C146 3329  -1.641  11.642   6.056 -0.2873  0.2942 -0.1683
   30TAL   C147 3330  -1.597  11.591   5.918 -0.4038  0.2875 -0.1497
   30TAL   C148 3331  -1.684  11.640   5.797  0.0491 -0.0782 -0.1064
   30TAL   C149 3332  -1.830  11.595   5.797 -0.1057 -0.3489  0.5116
   30TAL   C150 3333  -1.884  11.617   5.658 -0.2336  0.1681 -0.4493
   31HTM   C151 3334  -1.365  11.411   6.366  0.2282 -0.0921 -0.1414
   31HTM   C152 3335  -1.392  11.480   6.481 -0.0098 -0.2995 -0.0713
   31HTM   C153 3336  -1.275  11.516   6.556 -0.1504 -0.2170  0.1090
   31HTM   C154 3337  -1.158  11.473   6.499 -0.0191  0.0532  0.1765
   31HTM    S16 3338  -1.188  11.385   6.345  0.2943  0.2259  0.0161
   32TAL   C155 3339  -1.278  11.589   6.689  0.2544 -0.1320 -0.0643
   32TAL   C156 3340  -1.402  11.566   6.778  0.0601 -0.0667  0.0465
   32TAL   C157 3341  -1.387  11.626   6.918  0.0442 -0.0372 -0.4856
   32TAL   C158 3342  -1.480  11.574   7.023  0.0874 -0.2511 -0.0670
   32TAL   C159 3343  -1.482  11.654   7.147  0.0769  0.1623  0.2676
   32TAL   C160 3344  -1.572  11.591   7.240  0.0598  0.3869  0.5538
   33HTM   C161 3345  -1.024  11.492   6.536 -0.1211  0.1589  0.5218
   33HTM   C162 3346  -0.936  11.393   6.567 -0.0782  0.2347  0.6435
   33HTM   C163 3347  -0.800  11.439   6.582 -0.0424  0.2601  0.2613
   33HTM   C164 3348  -0.785  11.573   6.562 -0.0588  0.2036 -0.1518
   33HTM    S17 3349  -0.942  11.652   6.523 -0.1205  0.1133 -0.0898
   34TAL   C165 3350  -0.682  11.342   6.615 -0.5118 -0.2465 -0.4252
   34TAL   C166 3351  -0.719  11.231   6.714 -0.1251  0.7385  0.2922
   34TAL   C167 3352  -0.594  11.155   6.753  0.4837 -0.5479 -0.0350
   34TAL   C168 3353  -0.630  11.022   6.825 -0.3712 -0.7242 -0.0592
   34TAL   C169 3354  -0.506  10.946   6.866 -0.7108  0.6368  0.0716
   34TAL   C170 3355  -0.533  10.814   6.942 -0.1107  0.0283  0.8964
   35HTM   C171 3356  -0.668  11.661   6.573 -0.0681 -0.0366  0.1801
   35HTM   C172 3357  -0.537  11.628   6.595 -0.1297  0.0530  0.6781
   35HTM   C173 3358  -0.447  11.739   6.582 -0.1440  0.0958  0.9339
   35HTM   C174 3359  -0.508  11.857   6.550 -0.0937  0.0389  0.6306
   35HTM    S18 3360  -0.686  11.836   6.533 -0.0236 -0.0742 -0.0059
   36TAL   C175 3361  -0.296  11.728   6.605  0.3086 -1.0005 -0.2414
   36TAL   C176 3362  -0.240  11.614   6.698  0.0120  0.2188 -0.7022
   36TAL   C177 3363  -0.277  11.610   6.846 -0.0376 -0.3442 -0.2411
   36TAL   C178 3364  -0.277  11.464   6.895  0.0330 -0.4103  0.3574
   36TAL   C179 3365  -0.298  11.427   7.036  0.1219  0.7774  0.3597
   36TAL   C180 3366  -0.296  11.271   7.038  0.0318 -0.0213 -0.1231
   37HTM   C181 3367  -0.452  11.985   6.516 -0.2821 -0.0710 -0.0514
   37HTM   C182 3368  -0.337  12.015   6.448 -0.3018 -0.2482 -0.1638
   37HTM   C183 3369  -0.329  12.153   6.407 -0.1397 -0.2667 -0.1934
   37HTM   C184 3370  -0.437  12.228   6.444  0.0031 -0.1037 -0.1029
   37HTM    S19 3371  -0.559  12.129   6.533 -0.0563  0.0872  0.0270
   38TAL   C185 3372  -0.206  12.202   6.323  0.1063  0.8327 -0.0377
   38TAL   C186 3373  -0.073  12.220   6.385 -0.4147 -0.0389 -0.3993
   38TAL   C187 3374   0.028  12.221   6.273 -0.6447 -0.2930  0.4185
   38TAL   C188 3375   0.162  12.242   6.330 -0.3061  0.2557  0.5541
   38TAL   C189 3376   0.268  12.178   6.238  0.1939 -0.2041 -0.7532
   38TAL   C190 3377   0.420  12.205   6.271 -0.2295  0.0338  0.1893
   39HTM   C191 3378  -0.461  12.372   6.439 -0.2924  0.1236 -0.3045
   39HTM   C192 3379  -0.555  12.444   6.508 -0.2046  0.2732 -0.3390
   39HTM   C193 3380  -0.548  12.586   6.486  0.0410  0.2644 -0.3250
   39HTM   C194 3381  -0.449  12.623   6.399  0.1397  0.1077 -0.2794
   39HTM    S20 3382  -0.356  12.480   6.339 -0.0711 -0.0417 -0.2510
   40TAL   C195 3383  -0.667  12.675   6.520 -0.3848  0.0417  0.4326
   40TAL   C196 3384  -0.781  12.660   6.416 -0.1118 -0.3127  0.1858
   40TAL   C197 3385  -0.900  12.757   6.426  0.4566  0.4497  0.3791
   40TAL   C198 3386  -1.029  12.680   6.373 -0.2402 -1.1353  0.4012
   40TAL   C199 3387  -1.161  12.761   6.394 -0.1661 -1.1136  0.5191
   40TAL   C200 3388  -1.185  12.811   6.541 -0.2737  0.1995  0.3633
   41HTM   C201 3389  -0.390  12.756   6.381 -0.0485  0.2861 -0.1440
   41HTM   C202 3390  -0.256  12.772   6.363 -0.0744  0.3564 -0.2706
   41HTM   C203 3391  -0.213  12.909   6.367 -0.1211  0.3684 -0.1569
   41HTM   C204 3392  -0.314  12.998   6.387 -0.1329  0.3071  0.0559
   41HTM    S21 3393  -0.473  12.915   6.404 -0.0840  0.2289  0.1301
   42TAL   C205 3394  -0.067  12.932   6.361 -0.3113  0.3558 -0.2894
   42TAL   C206 3395  -0.003  13.053   6.283 -0.1138  0.4705  0.3473
   42TAL   C207 3396  -0.013  13.050   6.127  0.4192  0.3151  0.1625
   42TAL   C208 3397  -0.014  13.181   6.050  0.9702 -1.2586  0.2590
   42TAL   C209 3398   0.080  13.295   6.085  0.3555 -0.4476  0.0381
   42TAL   C210 3399   0.228  13.267   6.069 -0.9017  0.2958  0.7768
   43HTM   C211 3400  -0.312  13.144   6.403  0.0392  0.1077  0.0658
   43HTM   C212 3401  -0.301  13.217   6.518  0.7691  0.0329  0.0515
   43HTM   C213 3402  -0.300  13.359   6.495  1.0033  0.0410  0.1113
   43HTM   C214 3403  -0.310  13.395   6.364  0.4526  0.1217  0.1711
   43HTM    S22 3404  -0.321  13.249   6.257 -0.4115  0.1947  0.1566
   44TAL   C215 3405  -0.270  13.454   6.614  0.7072  0.5036  0.0345
   44TAL   C216 3406  -0.215  13.393   6.747  0.1683 -0.3584  0.3333
   44TAL   C217 3407  -0.196  13.490   6.861  0.4725  0.0692 -0.1580
   44TAL   C218 3408  -0.138  13.423   6.982 -0.0617  0.5768 -0.3579
   44TAL   C219 3409   0.004  13.360   6.966 -0.3054  0.2800 -0.3136
   44TAL   C220 3410   0.056  13.271   7.078 -0.5679 -0.2548 -0.2174
   45HTM   C221 3411  -0.308  13.527   6.299 -0.6004 -0.0578  0.1022
   45HTM   C222 3412  -0.347  13.552   6.171 -1.3952  0.2284  0.3912
   45HTM   C223 3413  -0.333  13.690   6.132 -1.2813  0.2468  0.4961
   45HTM   C224 3414  -0.284  13.770   6.230 -0.4007 -0.0254  0.2869
   45HTM    S23 3415  -0.251  13.677   6.381  0.3608 -0.3278 -0.0615
   46TAL   C225 3416  -0.341  13.737   5.983 -0.0207  0.5544 -0.1209
   46TAL   C226 3417  -0.461  13.820   5.945 -0.3909  0.1150  0.8100
   46TAL   C227 3418  -0.438  13.887   5.812 -0.5382  0.2205  0.1516
   46TAL   C228 3419  -0.572  13.950   5.771  0.1636  0.0800  0.3302
   46TAL   C229 3420  -0.537  14.043   5.660 -0.5130 -0.0169 -0.6170
   46TAL   C230 3421  -0.660  14.112   5.602  0.1773  0.1354 -0.7616
   47HTM   C231 3422  -0.242  13.912   6.221  0.0588  0.2893 -0.4517
   47HTM   C232 3423  -0.116  13.964   6.212  0.0677  0.2396 -0.6280
   47HTM   C233 3424  -0.114  14.105   6.184  0.0815  0.2551 -0.5500
   47HTM   C234 3425  -0.237  14.160   6.170  0.0833  0.3165 -0.3146
   47HTM    S24 3426  -0.368  14.038   6.193  0.0676  0.3599 -0.1715
   48TAL   C235 3427   0.024  14.170   6.172 -0.4533  0.0546 -0.0252
   48TAL   C236 3428   0.048  14.315   6.133  0.8817  0.0403 -0.3606
   48TAL   C237 3429  -0.038  14.414   6.211  0.2300 -0.3856 -0.4497
   48TAL   C238 3430  -0.007  14.559   6.180  0.2498 -0.1956 -0.5372
   48TAL   C239 3431  -0.071  14.643   6.285  0.0559 -0.4567  1.1924
   48TAL   C240 3432  -0.029  14.787   6.259 -0.0483  0.3874  0.1064
    1HTM     C1 3433   0.649   3.453   1.846  0.2222  0.1837  0.1340
    1HTM     C2 3434   0.709   3.573   1.822  0.5084  0.0505  0.1903
    1HTM     C3 3435   0.850   3.574   1.853  0.5096 -0.2981  0.1974
    1HTM     C4 3436   0.897   3.455   1.900  0.2243 -0.4307  0.1466
    1HTM     S1 3437   0.765   3.331   1.910 -0.0703 -0.1230  0.0854
    2TAL     C5 3438   0.928   3.705   1.853 -0.1501 -0.0031 -0.5573
    2TAL     C6 3439   0.913   3.786   1.724  0.4210  0.1951 -0.0954
    2TAL     C7 3440   1.018   3.901   1.701  0.1023 -0.2292 -0.0093
    2TAL     C8 3441   1.159   3.861   1.633 -0.1024  0.3438 -0.6556
    2TAL     C9 3442   1.136   3.830   1.488  0.1950  0.3919  0.2077
    2TAL    C10 3443   1.245   3.743   1.429  0.0489  0.1633  0.0431
    3HTM    C11 3444   1.021   3.410   1.944 -0.1789 -0.3792 -0.0220
    3HTM    C12 3445   1.059   3.281   1.962  0.2099 -0.2905 -0.2188
    3HTM    C13 3446   1.200   3.266   1.991  0.2399  0.0921 -0.1605
    3HTM    C14 3447   1.268   3.384   1.995 -0.1261  0.2954  0.0806
    3HTM     S2 3448   1.159   3.524   1.963 -0.5401  0.0170  0.2543
    4TAL    C15 3449   1.259   3.133   2.019  0.1962 -0.4330 -0.1149
    4TAL    C16 3450   1.227   3.020   1.920  0.4815  0.5695 -0.0088
    4TAL    C17 3451   1.281   2.887   1.963  0.2122  0.1041  0.7004
    4TAL    C18 3452   1.250   2.777   1.859 -0.3924  0.1059  0.1480
    4TAL    C19 3453   1.314   2.641   1.898  0.7337 -0.1170  0.2638
    4TAL    C20 3454   1.233   2.514   1.861 -0.1566 -1.0740 -0.2010
    5HTM    C21 3455   1.417   3.409   2.016  0.1635 -0.1452 -0.4092
    5HTM    C22 3456   1.518   3.318   2.026  0.1614 -0.2170 -1.0157
    5HTM    C23 3457   1.647   3.376   2.051  0.2624 -0.3473 -1.2295
    5HTM    C24 3458   1.645   3.512   2.060  0.3415 -0.3747 -0.7861
    5HTM     S3 3459   1.478   3.577   2.038  0.2941 -0.2373 -0.0584
    6TAL    C25 3460   1.776   3.301   2.079 -0.0264 -0.1160 -0.4564
    6TAL    C26 3461   1.807   3.167   2.001 -0.1417  0.6200  0.9878
    6TAL    C27 3462   1.721   3.048   2.044  0.2207 -0.3645  0.1064
    6TAL    C28 3463   1.753   2.906   1.994  0.1002  0.3486 -0.3859
    6TAL    C29 3464   1.625   2.823   2.004 -0.1188  0.7213  0.0011
    6TAL    C30 3465   1.664   2.676   1.992  0.4801 -0.4504 -0.2092
    7HTM    C31 3466   1.755   3.606   2.067  0.0362  0.1486  0.2843
    7HTM    C32 3467   1.863   3.607   2.150 -0.0893  0.4261  0.4476
    7HTM    C33 3468   1.944   3.725   2.139 -0.1260  0.4318  0.2452
    7HTM    C34 3469   1.898   3.815   2.047 -0.0284  0.1583 -0.0726
    7HTM     S4 3470   1.747   3.756   1.967  0.1186 -0.1294 -0.1415
    8TAL    C35 3471   2.066   3.745   2.230 -0.0869 -0.1573 -0.1238
    8TAL    C36 3472   2.204   3.678   2.197 -0.6705  0.0393 -0.2313
    8TAL    C37 3473   2.207   3.530   2.184 -0.3391  0.0807 -0.0739
    8TAL    C38 3474   2.160   3.456   2.313  0.1458  0.5834 -0.7020
    8TAL    C39 3475   2.137   3.309   2.304 -0.2928 -0.1472 -0.2416
    8TAL    C40 3476   2.101   3.252   2.439  0.1718  0.3224 -0.1993
    9HTM    C41 3477   1.944   3.943   1.996 -0.2521  0.1406  0.2385
    9HTM    C42 3478   1.899   4.010   1.886 -0.5116  0.1817  0.3707
    9HTM    C43 3479   1.960   4.140   1.869 -0.5379  0.1793  0.2627
    9HTM    C44 3480   2.052   4.170   1.965 -0.2982  0.1366  0.0482
    9HTM     S5 3481   2.069   4.038   2.086 -0.0189  0.0954 -0.0347
   10TAL    C45 3482   1.923   4.220   1.748  0.2839  0.2639  0.3790
   10TAL    C46 3483   1.968   4.167   1.612 -0.0545 -0.3143 -0.2734
   10TAL    C47 3484   1.943   4.263   1.497 -0.5578  0.6811  0.5661
   10TAL    C48 3485   2.019   4.392   1.497  0.1241  0.1876 -0.4480
   10TAL    C49 3486   2.169   4.389   1.490 -0.2327  0.1012  0.4091
   10TAL    C50 3487   2.229   4.518   1.544 -0.5946 -0.1853 -0.4863
   11HTM    C51 3488   2.152   4.278   1.979  0.1979  0.2141 -0.3248
   11HTM    C52 3489   2.280   4.270   2.023  0.3469  0.0730 -0.7762
   11HTM    C53 3490   2.356   4.391   2.002  0.3471  0.0594 -0.8550
   11HTM    C54 3491   2.285   4.491   1.942  0.1982  0.1906 -0.4636
   11HTM     S6 3492   2.116   4.439   1.907  0.0451  0.3426  0.0387
   12TAL    C55 3493   2.496   4.397   2.056  0.4258  0.8765 -0.0082
   12TAL    C56 3494   2.562   4.525   2.116  0.4615  1.2960  0.3964
   12TAL    C57 3495   2.485   4.594   2.226 -0.5883  1.0383 -0.0782
   12TAL    C58 3496   2.467   4.500   2.353 -0.0858  0.6556  0.3573
   12TAL    C59 3497   2.407   4.564   2.476 -0.8292  0.5648  0.4902
   12TAL    C60 3498   2.473   4.675   2.544 -0.3982  0.0127  0.1654
   13HTM    C61 3499   2.311   4.624   1.902  0.6660  0.2489  0.2577
   13HTM    C62 3500   2.420   4.664   1.831  0.6673  0.5705  0.4389
   13HTM    C63 3501   2.402   4.790   1.762  0.4201  0.5286  0.4277
   13HTM    C64 3502   2.279   4.845   1.781  0.2300  0.1753  0.2378
   13HTM     S7 3503   2.176   4.743   1.888  0.3496 -0.1346  0.0570
   14TAL    C65 3504   2.521   4.857   1.683  0.1052 -0.6366 -0.4700
   14TAL    C66 3505   2.671   4.867   1.737 -0.8622 -0.4174 -0.3272
   14TAL    C67 3506   2.762   4.965   1.651 -0.0227  0.5698 -0.6489
   14TAL    C68 3507   2.742   5.112   1.631  0.3581  0.1915  0.0923
   14TAL    C69 3508   2.763   5.198   1.757  0.2620 -0.1870 -0.7487
   14TAL    C70 3509   2.730   5.346   1.746  0.2242 -0.1381 -0.2253
   15HTM    C71 3510   2.221   4.971   1.739  0.2411  0.5881  0.7763
   15HTM    C72 3511   2.275   5.095   1.726  0.0681  0.6025  0.1706
   15HTM    C73 3512   2.179   5.198   1.695 -0.0304  0.2685 -0.6349
   15HTM    C74 3513   2.051   5.151   1.684  0.0676 -0.0011 -0.6436
   15HTM     S8 3514   2.042   4.973   1.713  0.2936  0.1474  0.3729
   16TAL    C75 3515   2.222   5.335   1.682  0.0716  0.0926  0.1954
   16TAL    C76 3516   2.347   5.387   1.618 -0.1668 -0.0677 -0.5295
   16TAL    C77 3517   2.359   5.539   1.617  0.0537 -0.5293 -0.2956
   16TAL    C78 3518   2.495   5.593   1.578 -0.5134 -0.8128  0.2281
   16TAL    C79 3519   2.499   5.743   1.544  0.3026  0.6766 -0.5036
   16TAL    C80 3520   2.644   5.769   1.510  0.4816  0.0542  0.2319
   17HTM    C81 3521   1.920   5.216   1.654  0.0335 -0.3011  0.2988
   17HTM    C82 3522   1.891   5.347   1.680  0.0288 -0.3264  0.4207
   17HTM    C83 3523   1.757   5.385   1.644  0.0900 -0.2480  0.2707
   17HTM    C84 3524   1.683   5.283   1.592  0.1414 -0.1636  0.0345
   17HTM     S9 3525   1.778   5.130   1.582  0.1164 -0.1760 -0.0172
   18TAL    C85 3526   1.692   5.516   1.685  0.0989  0.9567 -0.3473
   18TAL    C86 3527   1.774   5.624   1.751  0.1535  0.3675 -1.0552
   18TAL    C87 3528   1.840   5.725   1.661  0.5018 -0.2372  0.2822
   18TAL    C88 3529   1.978   5.692   1.606  0.4943 -0.7810 -0.2499
   18TAL    C89 3530   2.012   5.812   1.519 -0.4202 -0.2954  0.1726
   18TAL    C90 3531   2.161   5.831   1.489 -0.4745 -0.2009  0.0450
   19HTM    C91 3532   1.547   5.270   1.569 -0.1425 -0.2852  0.5019
   19HTM    C92 3533   1.467   5.166   1.606 -0.3809 -0.1819  0.2797
   19HTM    C93 3534   1.329   5.183   1.569 -0.2325 -0.0672 -0.2363
   19HTM    C94 3535   1.303   5.300   1.505  0.1190 -0.0831 -0.4076
   19HTM    S10 3536   1.453   5.399   1.485  0.2913 -0.2450  0.0733
   20TAL    C95 3537   1.229   5.079   1.602  0.4055  0.4156 -0.3940
   20TAL    C96 3538   1.172   5.084   1.744  0.2301 -0.3711  0.4462
   20TAL    C97 3539   1.055   4.989   1.778 -0.6110 -0.4143 -0.4563
   20TAL    C98 3540   1.087   4.843   1.790  0.1099 -0.7364  0.2140
   20TAL    C99 3541   1.202   4.791   1.878 -0.0070 -0.2692  0.3657
   20TAL   C100 3542   1.193   4.834   2.022  0.2288  0.0800  0.8856
   21HTM   C101 3543   1.177   5.352   1.448 -0.1787  0.3830  0.0366
   21HTM   C102 3544   1.161   5.477   1.397 -0.4192  0.4375  0.2470
   21HTM   C103 3545   1.030   5.501   1.342 -0.4404  0.2542  0.2181
   21HTM   C104 3546   0.946   5.394   1.351 -0.2161  0.0591 -0.0144
   21HTM    S11 3547   1.027   5.253   1.430  0.0415  0.0926 -0.2164
   22TAL   C105 3548   1.003   5.628   1.261 -0.6881 -0.3972 -0.4297
   22TAL   C106 3549   1.103   5.659   1.148 -0.1868  0.0872  0.0272
   22TAL   C107 3550   1.076   5.804   1.089 -0.0943 -0.6163 -0.0032
   22TAL   C108 3551   0.953   5.813   1.000  0.0407  0.2261 -0.4127
   22TAL   C109 3552   0.929   5.950   0.948 -0.4874  0.1229  0.0811
   22TAL   C110 3553   0.808   5.940   0.855 -0.1913  0.1522  0.3733
   23HTM   C111 3554   0.801   5.381   1.318 -0.2183  0.0859  0.3327
   23HTM   C112 3555   0.735   5.262   1.322 -0.2745  0.1130  0.2430
   23HTM   C113 3556   0.599   5.269   1.276 -0.2103  0.1709  0.0632
   23HTM   C114 3557   0.561   5.393   1.235 -0.1051  0.1877  0.0159
   23HTM    S12 3558   0.696   5.513   1.253 -0.0788  0.1312  0.1960
   24TAL   C115 3559   0.527   5.141   1.267  0.5067 -0.2885 -0.1415
   24TAL   C116 3560   0.406   5.116   1.356 -0.1889 -0.0572 -0.0847
   24TAL   C117 3561   0.381   5.179   1.491  0.1655 -0.1144 -0.0132
   24TAL   C118 3562   0.487   5.173   1.601 -0.3903 -0.3115 -0.4353
   24TAL   C119 3563   0.519   5.034   1.642 -0.2312 -0.2943 -0.4101
   24TAL   C120 3564   0.637   5.037   1.740 -0.0036  0.5923  0.4321
   25HTM   C121 3565   0.425   5.434   1.196  0.1807  0.2546 -0.1612
   25HTM   C122 3566   0.348   5.524   1.263  0.2359  0.2120 -0.0399
   25HTM   C123 3567   0.211   5.528   1.219  0.1530  0.1059  0.2034
   25HTM   C124 3568   0.184   5.440   1.117  0.0345  0.0671  0.2679
   25HTM    S13 3569   0.331   5.346   1.070  0.0183  0.1630  0.0241
   26TAL   C125 3570   0.117   5.618   1.292 -0.1423 -0.2677  0.3787
   26TAL   C126 3571  -0.029   5.596   1.290 -0.2161 -0.1598 -0.3849
   26TAL   C127 3572  -0.065   5.456   1.347 -0.4802  0.0504 -0.5937
   26TAL   C128 3573  -0.210   5.423   1.349  0.0032  0.5271  0.0145
   26TAL   C129 3574  -0.243   5.285   1.413 -0.2526 -0.0867 -0.3428
   26TAL   C130 3575  -0.208   5.171   1.315 -0.4264  0.0149  0.0007
   27HTM   C131 3576   0.072   5.432   1.029 -0.0232 -0.3102  0.1219
   27HTM   C132 3577   0.022   5.521   0.938  0.1091 -0.2112  0.1467
   27HTM   C133 3578  -0.096   5.475   0.871  0.1101 -0.0663  0.0463
   27HTM   C134 3579  -0.138   5.351   0.910 -0.0214 -0.0552 -0.0552
   27HTM    S14 3580  -0.029   5.283   1.037 -0.1577 -0.2281 -0.0316
   28TAL   C135 3581  -0.166   5.560   0.770  0.3893 -0.1538  0.0837
   28TAL   C136 3582  -0.179   5.708   0.810 -0.1246 -0.5711 -0.2159
   28TAL   C137 3583  -0.063   5.809   0.814  0.0172 -0.8377  0.5571
   28TAL   C138 3584  -0.095   5.947   0.869 -0.1473 -0.0826 -0.2197
   28TAL   C139 3585  -0.219   6.023   0.826 -0.1071  0.0487  0.7655
   28TAL   C140 3586  -0.227   6.166   0.875  0.0603 -0.5310  0.0168
   29HTM   C141 3587  -0.244   5.266   0.868 -0.1388  0.3926 -0.2126
   29HTM   C142 3588  -0.353   5.238   0.945 -0.1721  0.6242 -0.1740
   29HTM   C143 3589  -0.446   5.147   0.882 -0.1526  0.4454  0.0507
   29HTM   C144 3590  -0.408   5.107   0.758 -0.1027  0.0772  0.1835
   29HTM    S15 3591  -0.250   5.181   0.710 -0.0782 -0.0736  0.0339
   30TAL   C145 3592  -0.570   5.097   0.954 -0.0641 -0.3186 -0.2066
   30TAL   C146 3593  -0.676   5.204   0.991 -0.0760  0.8087 -0.1118
   30TAL   C147 3594  -0.777   5.176   1.107  0.7971 -0.6672 -0.3076
   30TAL   C148 3595  -0.720   5.152   1.246  0.0718 -0.4215 -0.3673
   30TAL   C149 3596  -0.650   5.272   1.306 -0.1698  0.5830 -0.2101
   30TAL   C150 3597  -0.596   5.240   1.442  0.0522 -0.1197 -0.3341
   31HTM   C151 3598  -0.472   5.014   0.668  0.1218  0.2909  0.0705
   31HTM   C152 3599  -0.601   5.011   0.627  0.1569  0.2673 -0.0405
   31HTM   C153 3600  -0.630   4.904   0.535  0.2379  0.2182 -0.0090
   31HTM   C154 3601  -0.523   4.826   0.506  0.2642  0.2041  0.1261
   31HTM    S16 3602  -0.375   4.881   0.594  0.1877  0.2526  0.2246
   32TAL   C155 3603  -0.775   4.888   0.494 -0.3490  0.7981  0.4681
   32TAL   C156 3604  -0.823   4.995   0.395  0.2074  0.3566  0.0332
   32TAL   C157 3605  -0.822   5.138   0.435 -0.2000 -0.1766 -0.3911
   32TAL   C158 3606  -0.808   5.235   0.318 -0.0726 -0.1371  0.0879
   32TAL   C159 3607  -0.673   5.240   0.237 -0.3571 -0.1739 -0.8567
   32TAL   C160 3608  -0.547   5.265   0.304 -0.1106  0.1872 -0.5350
   33HTM   C161 3609  -0.516   4.701   0.427 -0.0676  0.2275  0.1597
   33HTM   C162 3610  -0.406   4.668   0.352  0.0596  0.2930  0.3165
   33HTM   C163 3611  -0.406   4.531   0.307  0.2255  0.2823  0.3486
   33HTM   C164 3612  -0.515   4.460   0.347  0.2247  0.2090  0.2162
   33HTM    S17 3613  -0.628   4.561   0.445  0.0125  0.1468  0.0393
   34TAL   C165 3614  -0.289   4.471   0.227  0.0445 -1.0631  0.2601
   34TAL   C166 3615  -0.213   4.559   0.124 -0.4235 -0.7080  0.2710
   34TAL   C167 3616  -0.264   4.567  -0.017 -0.2788  0.0469 -0.1566
   34TAL   C168 3617  -0.240   4.452  -0.105 -0.4333  0.7181 -0.1210
   34TAL   C169 3618  -0.288   4.482  -0.244  0.2404  0.8648  0.8723
   34TAL   C170 3619  -0.260   4.375  -0.355  0.1569 -0.4642  0.2304
   35HTM   C171 3620  -0.555   4.320   0.315  0.1640  0.2142  0.2024
   35HTM   C172 3621  -0.679   4.276   0.282  0.2337  0.3700 -0.2712
   35HTM   C173 3622  -0.684   4.134   0.255  0.2637  0.4714 -0.8191
   35HTM   C174 3623  -0.564   4.071   0.268  0.2168  0.3926 -0.7633
   35HTM    S18 3624  -0.434   4.187   0.315  0.1304  0.1831 -0.0085
   36TAL   C175 3625  -0.809   4.061   0.224 -0.1279  0.6832 -0.0838
   36TAL   C176 3626  -0.836   4.025   0.074 -0.0470 -0.0954  0.2580
   36TAL   C177 3627  -0.964   3.954   0.034  0.4000  0.2114  0.4286
   36TAL   C178 3628  -1.093   4.022   0.077 -0.4062 -0.5630 -0.2288
   36TAL   C179 3629  -1.214   3.942   0.035 -0.2647 -0.4007 -0.1585
   36TAL   C180 3630  -1.346   4.014   0.022  0.7681 -0.3568 -0.1189
   37HTM   C181 3631  -0.536   3.930   0.255 -0.0939 -0.1962 -0.3205
   37HTM   C182 3632  -0.454   3.868   0.165 -0.2708 -0.3011 -0.4105
   37HTM   C183 3633  -0.448   3.725   0.181 -0.3695 -0.2996 -0.3613
   37HTM   C184 3634  -0.526   3.678   0.283 -0.2669 -0.1934 -0.2338
   37HTM    S19 3635  -0.613   3.812   0.368 -0.0363 -0.0864 -0.1654
   38TAL   C185 3636  -0.364   3.646   0.079 -0.4299 -0.1068 -0.4886
   38TAL   C186 3637  -0.217   3.626   0.114 -0.1087  0.1058 -1.0734
   38TAL   C187 3638  -0.159   3.501   0.058 -0.3237  0.0909  0.0672
   38TAL   C188 3639  -0.006   3.505   0.080  0.7664 -0.1680  0.1590
   38TAL   C189 3640   0.067   3.374   0.047 -0.1512 -0.4359 -0.1182
   38TAL   C190 3641   0.214   3.392   0.059  0.0217  0.1795  0.4939
   39HTM   C191 3642  -0.568   3.538   0.310 -0.3613  0.0754  0.4362
   39HTM   C192 3643  -0.683   3.500   0.374 -0.3691 -0.3276  0.1862
   39HTM   C193 3644  -0.694   3.358   0.395 -0.2613 -0.4390 -0.4994
   39HTM   C194 3645  -0.587   3.288   0.347 -0.1698 -0.1210 -0.7722
   39HTM    S20 3646  -0.464   3.396   0.271 -0.2139  0.3474 -0.1797
   40TAL   C195 3647  -0.813   3.299   0.467  0.4079 -0.4548 -0.1241
   40TAL   C196 3648  -0.953   3.292   0.397  0.0163  0.4572 -0.2056
   40TAL   C197 3649  -1.045   3.182   0.434 -0.2263  1.2148 -0.6604
   40TAL   C198 3650  -0.990   3.043   0.403 -0.0693 -0.1775  0.1639
   40TAL   C199 3651  -1.077   2.927   0.440  0.5072  0.3015 -0.6844
   40TAL   C200 3652  -1.019   2.789   0.399 -0.1024  0.1531  0.0890
   41HTM   C201 3653  -0.558   3.144   0.341 -0.2995  0.1630 -0.1344
   41HTM   C202 3654  -0.494   3.074   0.242 -0.3705  0.0232 -0.0829
   41HTM   C203 3655  -0.496   2.931   0.261 -0.1698  0.0615  0.2350
   41HTM   C204 3656  -0.562   2.892   0.374  0.0552  0.2305  0.4259
   41HTM    S21 3657  -0.626   3.033   0.466  0.0307  0.3552  0.2173
   42TAL   C205 3658  -0.434   2.841   0.151  0.4497 -0.6507  0.1944
   42TAL   C206 3659  -0.516   2.824   0.019 -0.0676 -0.0910 -0.0499
   42TAL   C207 3660  -0.651   2.750   0.046 -0.4602  0.6063  0.3252
   42TAL   C208 3661  -0.764   2.789  -0.046  0.1987 -0.8068 -0.2823
   42TAL   C209 3662  -0.890   2.730   0.025 -0.0573 -0.2420 -0.1692
   42TAL   C210 3663  -1.025   2.756  -0.039 -0.4050 -0.8092 -0.8306
   43HTM   C211 3664  -0.586   2.761   0.426 -0.3487 -0.1338 -0.5480
   43HTM   C212 3665  -0.667   2.732   0.532 -0.5450  0.1721 -0.6144
   43HTM   C213 3666  -0.670   2.593   0.567 -0.5927  0.2747 -0.2034
   43HTM   C214 3667  -0.591   2.515   0.488 -0.4310  0.0470  0.1763
   43HTM    S22 3668  -0.507   2.612   0.361 -0.2065 -0.3176  0.0432
   44TAL   C215 3669  -0.735   2.538   0.694 -0.6966  0.5517 -0.0301
   44TAL   C216 3670  -0.869   2.593   0.729  0.4046 -0.3948 -0.2159
   44TAL   C217 3671  -0.943   2.492   0.822 -0.2716 -0.4652 -0.3724
   44TAL   C218 3672  -1.086   2.541   0.852  0.7584  0.3596 -0.9992
   44TAL   C219 3673  -1.176   2.433   0.921 -0.5497  0.2300 -0.6427
   44TAL   C220 3674  -1.309   2.485   0.949  0.3721  0.0800 -0.1365
   45HTM   C221 3675  -0.570   2.368   0.476  0.2494 -0.1700 -0.2543
   45HTM   C222 3676  -0.465   2.309   0.412  0.3028 -0.5739  0.2034
   45HTM   C223 3677  -0.478   2.166   0.399  0.1292 -0.6113  0.7415
   45HTM   C224 3678  -0.593   2.116   0.452 -0.0563 -0.2360  0.6941
   45HTM    S23 3679  -0.695   2.247   0.524 -0.0260  0.1972 -0.0395
   46TAL   C225 3680  -0.360   2.089   0.334 -0.1069 -0.2127 -0.8530
   46TAL   C226 3681  -0.217   2.113   0.364  0.4123 -0.6771  0.1235
   46TAL   C227 3682  -0.130   2.032   0.273 -0.2856  0.0789 -0.3378
   46TAL   C228 3683   0.023   2.025   0.295 -0.2262 -0.6750 -1.1178
   46TAL   C229 3684   0.065   2.006   0.435  0.0100 -0.5472  0.2861
   46TAL   C230 3685   0.209   2.021   0.467 -0.2739 -0.2170  0.0446
   47HTM   C231 3686  -0.651   1.979   0.454  0.1637  0.1099  0.5353
   47HTM   C232 3687  -0.747   1.937   0.541  0.2494 -0.0255  0.5630
   47HTM   C233 3688  -0.773   1.796   0.535  0.2694 -0.0216  0.3954
   47HTM   C234 3689  -0.698   1.730   0.442  0.2010  0.1168  0.2398
   47HTM    S24 3690  -0.586   1.843   0.356  0.1036  0.2540  0.2935
   48TAL   C235 3691  -0.866   1.723   0.626  0.4877 -0.7379  0.0315
   48TAL   C236 3692  -1.017   1.718   0.586 -0.4535 -0.2212 -0.3381
   48TAL   C237 3693  -1.096   1.841   0.542 -0.6297  0.2135  0.0092
   48TAL   C238 3694  -1.118   1.937   0.659  0.2833 -0.7583 -0.2489
   48TAL   C239 3695  -1.183   2.063   0.622 -0.5136  0.1856 -0.7792
   48TAL   C240 3696  -1.212   2.153   0.739 -0.1982  0.3612 -0.4121
    1HTM     C1 3697   3.817   5.463   7.921 -0.2111  0.4268 -0.1009
    1HTM     C2 3698   3.708   5.544   7.905 -0.0762  0.6423  0.0618
    1HTM     C3 3699   3.727   5.677   7.955  0.1254  0.4916  0.3881
    1HTM     C4 3700   3.850   5.698   8.010  0.1442  0.1607  0.4755
    1HTM     S1 3701   3.952   5.550   8.002 -0.0932  0.0131  0.1486
    2TAL     C5 3702   3.616   5.785   7.947 -0.1347  0.6655  0.8552
    2TAL     C6 3703   3.520   5.775   7.822 -0.8146 -0.0247 -0.5276
    2TAL     C7 3704   3.403   5.676   7.832 -0.0315 -0.0044  0.2089
    2TAL     C8 3705   3.326   5.678   7.704 -0.2977  0.2426  0.6330
    2TAL     C9 3706   3.190   5.615   7.714  0.0959  0.4421 -0.8469
    2TAL    C10 3707   3.109   5.640   7.589 -0.2817 -0.2096 -0.0410
    3HTM    C11 3708   3.915   5.810   8.070 -0.0803  0.0975  0.0065
    3HTM    C12 3709   4.035   5.808   8.135 -0.2522  0.1810  0.3314
    3HTM    C13 3710   4.090   5.939   8.160 -0.3273  0.2141  0.3233
    3HTM    C14 3711   4.011   6.041   8.114 -0.2127  0.1560 -0.0073
    3HTM     S2 3712   3.861   5.979   8.036  0.0008  0.0541 -0.3365
    4TAL    C15 3713   4.218   5.955   8.232  0.2132  0.6431  1.4991
    4TAL    C16 3714   4.271   5.848   8.329  0.3985 -0.5629  0.2258
    4TAL    C17 3715   4.416   5.862   8.370  0.1209 -0.5871 -0.1011
    4TAL    C18 3716   4.490   5.755   8.452 -0.0135  0.5648 -0.4936
    4TAL    C19 3717   4.428   5.741   8.589  0.0976 -0.3892 -0.2996
    4TAL    C20 3718   4.467   5.614   8.661 -0.3831 -0.2392 -0.5688
    5HTM    C21 3719   4.032   6.188   8.121  0.0352 -0.0533 -0.3164
    5HTM    C22 3720   3.940   6.282   8.157 -0.0932  0.1292 -1.0948
    5HTM    C23 3721   3.987   6.417   8.143  0.1032  0.0498 -1.2078
    5HTM    C24 3722   4.115   6.427   8.096  0.3812 -0.1929 -0.5165
    5HTM     S3 3723   4.186   6.264   8.066  0.4166 -0.3414  0.3376
    6TAL    C25 3724   3.886   6.517   8.185  0.6045  0.7692  0.5481
    6TAL    C26 3725   3.779   6.562   8.087  0.3511  0.0533  0.9129
    6TAL    C27 3726   3.690   6.463   8.019  0.7183 -0.1690  0.3571
    6TAL    C28 3727   3.546   6.517   7.987  0.4350 -0.1824  0.2949
    6TAL    C29 3728   3.528   6.664   7.945 -0.4042 -0.2760 -0.3553
    6TAL    C30 3729   3.384   6.688   7.890  0.0390  0.3518  0.2627
    7HTM    C31 3730   4.200   6.545   8.083 -0.0758  0.0242 -0.0674
    7HTM    C32 3731   4.333   6.545   8.050 -0.0966  0.1373 -0.1507
    7HTM    C33 3732   4.392   6.676   8.049 -0.2539  0.2089 -0.3686
    7HTM    C34 3733   4.306   6.776   8.082 -0.3534  0.1503 -0.4517
    7HTM     S4 3734   4.141   6.712   8.116 -0.2550 -0.0014 -0.2590
    8TAL    C35 3735   4.541   6.682   8.024 -0.0627 -0.3644  0.0012
    8TAL    C36 3736   4.624   6.803   7.983 -0.7727  0.3098  0.2129
    8TAL    C37 3737   4.601   6.881   7.847  0.0679  0.0173  0.0854
    8TAL    C38 3738   4.695   6.994   7.808 -0.3813  0.1586  0.1588
    8TAL    C39 3739   4.660   7.052   7.675  0.4046  0.4551 -0.3219
    8TAL    C40 3740   4.768   7.148   7.632 -0.6639  0.5824 -0.5682
    9HTM    C41 3741   4.333   6.917   8.090 -0.0270  0.1165 -0.3994
    9HTM    C42 3742   4.378   6.989   8.196 -0.0803 -0.1531 -0.1936
    9HTM    C43 3743   4.376   7.132   8.176 -0.1509 -0.0951  0.1993
    9HTM    C44 3744   4.328   7.168   8.053 -0.1515  0.2187  0.2923
    9HTM     S5 3745   4.283   7.025   7.954 -0.0619  0.4675 -0.1120
   10TAL    C45 3746   4.436   7.218   8.281  0.1780 -0.3028  0.5284
   10TAL    C46 3747   4.585   7.206   8.304  1.1766 -0.4195  0.2444
   10TAL    C47 3748   4.679   7.219   8.183  0.0241  0.5620  0.8901
   10TAL    C48 3749   4.674   7.348   8.104  0.0425  0.3443  0.5968
   10TAL    C49 3750   4.761   7.338   7.973  0.5403 -0.4874  0.1661
   10TAL    C50 3751   4.751   7.463   7.889  0.3089 -0.0101  0.1758
   11HTM    C51 3752   4.334   7.302   7.992 -0.0716 -0.2560  0.3444
   11HTM    C52 3753   4.285   7.420   8.040  0.1128 -0.2027  0.4034
   11HTM    C53 3754   4.305   7.532   7.952 -0.0043 -0.2530  0.3128
   11HTM    C54 3755   4.370   7.499   7.836 -0.2775 -0.3444  0.1852
   11HTM     S6 3756   4.411   7.324   7.830 -0.4092 -0.3742  0.1686
   12TAL    C55 3757   4.265   7.672   7.996  0.0932  0.3850 -0.0487
   12TAL    C56 3758   4.339   7.742   8.116  0.7711 -0.3384 -0.5567
   12TAL    C57 3759   4.493   7.757   8.117 -0.2117 -0.0604  0.4289
   12TAL    C58 3760   4.536   7.839   8.000 -0.3467 -0.0071  0.5303
   12TAL    C59 3761   4.696   7.823   7.990  0.5103 -0.2808 -0.1622
   12TAL    C60 3762   4.746   7.902   7.871  0.2143  0.1164  0.0057
   13HTM    C61 3763   4.405   7.587   7.722 -0.0406 -0.1574 -0.1458
   13HTM    C62 3764   4.525   7.589   7.656 -0.0899  0.0148 -0.2308
   13HTM    C63 3765   4.545   7.708   7.577 -0.2193  0.1488 -0.0641
   13HTM    C64 3766   4.441   7.796   7.582 -0.2683  0.0783  0.1473
   13HTM     S7 3767   4.309   7.735   7.688 -0.1544 -0.1641  0.1529
   14TAL    C65 3768   4.671   7.721   7.487  0.3358 -0.4511  0.3160
   14TAL    C66 3769   4.799   7.753   7.553  0.1445 -0.1935 -0.0329
   14TAL    C67 3770   4.905   7.808   7.459 -0.0882  0.6637  0.3756
   14TAL    C68 3771   4.884   7.950   7.405  0.0923  0.1855 -0.5715
   14TAL    C69 3772   4.995   8.005   7.318 -0.7221 -0.1944  0.0630
   14TAL    C70 3773   4.975   8.149   7.291 -0.3913  0.1331  0.6782
   15HTM    C71 3774   4.412   7.921   7.508 -0.1462  0.1588 -0.1207
   15HTM    C72 3775   4.292   7.982   7.488 -0.0234  0.3710 -0.2105
   15HTM    C73 3776   4.302   8.105   7.413  0.2732  0.4630 -0.0246
   15HTM    C74 3777   4.429   8.137   7.376  0.3772  0.3217  0.2065
   15HTM     S8 3778   4.548   8.014   7.433  0.1056  0.0584  0.2075
   16TAL    C75 3779   4.173   8.166   7.381  0.4407  0.2606 -0.2247
   16TAL    C76 3780   4.119   8.286   7.459  0.1245 -0.0791  0.1753
   16TAL    C77 3781   3.993   8.347   7.395  0.1825  0.1602  0.7075
   16TAL    C78 3782   4.027   8.468   7.303  0.2267 -0.1972 -0.3182
   16TAL    C79 3783   3.921   8.547   7.226 -0.0079  1.1984 -0.1542
   16TAL    C80 3784   3.851   8.465   7.120  0.0250 -0.0686  1.2875
   17HTM    C81 3785   4.485   8.256   7.304 -0.3681  0.2415  0.5531
   17HTM    C82 3786   4.410   8.353   7.245 -0.3252  0.4239  0.7985
   17HTM    C83 3787   4.486   8.468   7.204 -0.1786  0.2379  0.5462
   17HTM    C84 3788   4.620   8.458   7.231 -0.1096 -0.0862  0.1088
   17HTM     S9 3789   4.659   8.302   7.312 -0.2256 -0.1822 -0.0190
   18TAL    C85 3790   4.428   8.582   7.119 -0.1272  0.3672 -0.2452
   18TAL    C86 3791   4.306   8.652   7.170  0.0276 -0.0734 -1.2567
   18TAL    C87 3792   4.317   8.706   7.313  0.3873  0.0937  0.2261
   18TAL    C88 3793   4.204   8.807   7.351 -0.0899  0.1374  0.1882
   18TAL    C89 3794   4.178   8.849   7.494 -0.4751  0.3921  0.0470
   18TAL    C90 3795   4.173   8.737   7.593 -0.1352 -0.3642  0.3257
   19HTM    C91 3796   4.725   8.558   7.213  0.3828 -0.0570 -0.1977
   19HTM    C92 3797   4.859   8.545   7.191  0.5231  0.4873  0.3006
   19HTM    C93 3798   4.933   8.668   7.204 -0.0412  0.8140  0.4561
   19HTM    C94 3799   4.855   8.775   7.235 -0.6126  0.5175  0.0767
   19HTM    S10 3800   4.682   8.729   7.251 -0.4807 -0.2016 -0.5111
   20TAL    C95 3801   5.080   8.666   7.163 -0.2186  0.0893 -0.1263
   20TAL    C96 3802   5.169   8.565   7.238  0.2332  0.0480  0.1348
   20TAL    C97 3803   5.320   8.581   7.256 -0.4947 -0.1844  0.7402
   20TAL    C98 3804   5.373   8.702   7.323  0.5548 -0.0136 -0.1988
   20TAL    C99 3805   5.523   8.686   7.350  0.1165  0.2584 -0.7109
   20TAL   C100 3806   5.611   8.690   7.229 -0.2110  0.6973 -0.3008
   21HTM   C101 3807   4.886   8.920   7.259 -0.1146 -0.1404  0.4532
   21HTM   C102 3808   5.003   8.984   7.290 -0.1249 -0.3438  0.9136
   21HTM   C103 3809   4.990   9.127   7.298  0.0334 -0.3419  1.1406
   21HTM   C104 3810   4.864   9.173   7.272  0.1641 -0.1371  0.8527
   21HTM    S11 3811   4.751   9.037   7.237  0.0971  0.0711  0.2688
   22TAL   C105 3812   5.106   9.225   7.329 -1.0181  0.4536  0.3925
   22TAL   C106 3813   5.256   9.183   7.309 -0.3212  0.1721 -0.1334
   22TAL   C107 3814   5.289   9.136   7.161 -0.1849  0.4735 -0.3004
   22TAL   C108 3815   5.443   9.123   7.131  1.0156 -0.0036 -0.5190
   22TAL   C109 3816   5.526   9.063   7.239 -0.0177 -0.2701  0.3122
   22TAL   C110 3817   5.675   9.055   7.203  0.1936 -0.6230  0.5191
   23HTM   C111 3818   4.798   9.304   7.267  0.0043 -0.0498 -0.3539
   23HTM   C112 3819   4.674   9.328   7.217 -0.0134  0.0301 -0.2720
   23HTM   C113 3820   4.631   9.465   7.233 -0.0389 -0.0117  0.0257
   23HTM   C114 3821   4.722   9.544   7.295 -0.0407 -0.1234  0.1704
   23HTM    S12 3822   4.871   9.452   7.340 -0.0102 -0.1851 -0.0597
   24TAL   C115 3823   4.496   9.513   7.175  0.3660 -0.1809 -0.0490
   24TAL   C116 3824   4.444   9.452   7.039 -0.2680 -0.1835  0.0493
   24TAL   C117 3825   4.518   9.482   6.911  0.3847  0.6177  0.3481
   24TAL   C118 3826   4.570   9.628   6.897 -0.2284  0.2172 -0.5872
   24TAL   C119 3827   4.670   9.654   6.784 -0.6398  0.5234  0.3610
   24TAL   C120 3828   4.733   9.788   6.769 -0.4099 -0.6925  0.0378
   25HTM   C121 3829   4.707   9.682   7.348  0.0114  0.2661  0.5017
   25HTM   C122 3830   4.600   9.766   7.343  0.0360  0.3063  0.6511
   25HTM   C123 3831   4.618   9.887   7.419  0.2301  0.3477  0.5400
   25HTM   C124 3832   4.739   9.895   7.482  0.3533  0.3391  0.3060
   25HTM    S13 3833   4.840   9.749   7.450  0.2333  0.2775  0.2065
   26TAL   C125 3834   4.505   9.998   7.419 -0.3643 -0.4477 -0.2929
   26TAL   C126 3835   4.392   9.974   7.521  0.3765 -0.2900  0.1832
   26TAL   C127 3836   4.260  10.014   7.458  0.2324  0.1921 -0.6884
   26TAL   C128 3837   4.136   9.960   7.531  0.5006  0.6311 -0.2103
   26TAL   C129 3838   4.005   9.966   7.452 -0.4595 -0.2512  0.0712
   26TAL   C130 3839   3.889   9.917   7.536 -0.4361  0.1839  0.1136
   27HTM   C131 3840   4.791   9.980   7.585 -0.0398 -0.0335 -0.4367
   27HTM   C132 3841   4.869   9.942   7.690 -0.1373 -0.1373 -0.4013
   27HTM   C133 3842   4.874  10.038   7.797 -0.2415 -0.2461 -0.2983
   27HTM   C134 3843   4.800  10.150   7.774 -0.2241 -0.2251 -0.2548
   27HTM    S14 3844   4.717  10.142   7.614 -0.0729 -0.0653 -0.3414
   28TAL   C135 3845   4.949  10.011   7.925 -0.4119 -0.2573 -0.1361
   28TAL   C136 3846   4.907   9.896   8.009  0.6033  0.4153  0.0184
   28TAL   C137 3847   4.761   9.903   8.041  0.0607 -0.2661  0.1877
   28TAL   C138 3848   4.719   9.774   8.121 -0.0908 -1.3074 -0.0055
   28TAL   C139 3849   4.570   9.745   8.115 -0.3380  0.8780  0.0505
   28TAL   C140 3850   4.480   9.834   8.202 -0.5016  0.9073 -0.4027
   29HTM   C141 3851   4.772  10.268   7.859  0.0267  0.2148 -0.1364
   29HTM   C142 3852   4.786  10.280   7.994 -0.2661  0.0165 -0.0861
   29HTM   C143 3853   4.750  10.410   8.044 -0.5887 -0.1277  0.0567
   29HTM   C144 3854   4.708  10.497   7.947 -0.5423 -0.0393  0.1150
   29HTM    S15 3855   4.711  10.420   7.784 -0.0835  0.2351 -0.0063
   30TAL   C145 3856   4.758  10.433   8.189  0.3964  0.3243  0.3357
   30TAL   C146 3857   4.624  10.413   8.269 -0.3247 -0.1407 -0.9507
   30TAL   C147 3858   4.528  10.530   8.293  0.0029  0.2979  0.0282
   30TAL   C148 3859   4.567  10.644   8.391  0.7590  0.3536  0.5779
   30TAL   C149 3860   4.681  10.737   8.338 -0.5202  0.2640  0.0417
   30TAL   C150 3861   4.727  10.835   8.442 -0.1192 -0.8060 -0.0761
   31HTM   C151 3862   4.632  10.618   7.963 -0.0191  0.1262 -0.0034
   31HTM   C152 3863   4.496  10.623   7.975 -0.0007  0.2912  0.1299
   31HTM   C153 3864   4.446  10.754   8.011  0.1926  0.3520  0.1788
   31HTM   C154 3865   4.544  10.848   8.026  0.3214  0.2336  0.0813
   31HTM    S16 3866   4.708  10.778   7.997  0.2083  0.0343 -0.0795
   32TAL   C155 3867   4.301  10.790   8.039 -0.3446 -0.2418 -0.0264
   32TAL   C156 3868   4.182  10.699   7.994 -0.7874  0.3313  0.0226
   32TAL   C157 3869   4.148  10.699   7.838  0.2904 -0.2387  0.0122
   32TAL   C158 3870   4.086  10.825   7.779 -0.6115 -0.4946  0.0686
   32TAL   C159 3871   4.049  10.799   7.636 -0.1372 -0.4440  0.5323
   32TAL   C160 3872   3.974  10.926   7.595  0.4114 -0.7107  0.8450
   33HTM   C161 3873   4.541  10.991   8.054 -0.0602  0.1328  0.0941
   33HTM   C162 3874   4.650  11.055   8.104 -0.2720  0.1185  0.5875
   33HTM   C163 3875   4.634  11.198   8.115 -0.3560  0.1037  0.6523
   33HTM   C164 3876   4.511  11.242   8.074 -0.2079  0.1065  0.2084
   33HTM    S17 3877   4.407  11.106   8.018  0.0503  0.1285 -0.3300
   34TAL   C165 3878   4.758  11.282   8.165  0.7392  0.1541 -0.9723
   34TAL   C166 3879   4.823  11.208   8.282  0.3303  0.1011 -0.1188
   34TAL   C167 3880   4.926  11.296   8.352  0.1348  0.2753  0.4510
   34TAL   C168 3881   4.856  11.414   8.425 -0.5254  0.1325 -0.6882
   34TAL   C169 3882   4.954  11.506   8.492 -0.7695  0.4207  0.0490
   34TAL   C170 3883   4.889  11.633   8.539  0.0471  0.7393 -0.0695
   35HTM   C171 3884   4.463  11.380   8.074  0.0585 -0.2560 -0.0645
   35HTM   C172 3885   4.384  11.444   8.165 -0.0684 -0.3483 -0.1092
   35HTM   C173 3886   4.361  11.583   8.135 -0.2530 -0.3861 -0.1473
   35HTM   C174 3887   4.423  11.625   8.021 -0.2668 -0.3229 -0.1310
   35HTM    S18 3888   4.515  11.491   7.942 -0.0459 -0.2096 -0.0667
   36TAL   C175 3889   4.297  11.675   8.242 -0.4115  0.2069  0.7210
   36TAL   C176 3890   4.381  11.735   8.355 -0.4103  0.3584  0.9545
   36TAL   C177 3891   4.496  11.826   8.315  0.2247  0.4440 -0.0205
   36TAL   C178 3892   4.628  11.760   8.295 -0.2290  0.8077 -0.2353
   36TAL   C179 3893   4.739  11.861   8.250 -0.1977  0.7628  0.1604
   36TAL   C180 3894   4.872  11.793   8.221  0.7589 -0.2976 -0.0812
   37HTM   C181 3895   4.436  11.760   7.961  0.3201  0.1658  0.3628
   37HTM   C182 3896   4.530  11.797   7.870  0.3600  0.0391  0.3519
   37HTM   C183 3897   4.510  11.929   7.816  0.4108 -0.0165  0.1965
   37HTM   C184 3898   4.401  11.992   7.866  0.4098  0.0680  0.0885
   37HTM    S19 3899   4.314  11.890   7.987  0.3444  0.2253  0.1756
   38TAL   C185 3900   4.605  11.999   7.715 -0.6144 -0.2576  0.2524
   38TAL   C186 3901   4.757  12.020   7.747  0.4452 -0.1816 -0.1203
   38TAL   C187 3902   4.806  12.087   7.874  0.5880 -0.1764  0.0251
   38TAL   C188 3903   4.763  12.234   7.887  0.2937  0.2035 -0.0273
   38TAL   C189 3904   4.850  12.318   7.978  0.3643 -0.0340  0.4374
   38TAL   C190 3905   4.776  12.457   7.987 -0.1353  0.0654  0.0130
   39HTM   C191 3906   4.340  12.121   7.836 -0.1106  0.2124  0.0605
   39HTM   C192 3907   4.277  12.208   7.920  0.1888  0.5200 -0.0305
   39HTM   C193 3908   4.212  12.317   7.852  0.3769  0.5516 -0.1616
   39HTM   C194 3909   4.226  12.314   7.717  0.2207  0.2682 -0.1707
   39HTM    S20 3910   4.322  12.171   7.663 -0.1790 -0.0635 -0.0129
   40TAL   C195 3911   4.143  12.425   7.929 -0.2445 -0.5135  0.7189
   40TAL   C196 3912   4.232  12.490   8.044 -0.1319 -0.8943 -0.0150
   40TAL   C197 3913   4.359  12.556   8.003  0.2018  0.6423  0.5537
   40TAL   C198 3914   4.353  12.687   7.925  0.2326 -0.3248  0.6553
   40TAL   C199 3915   4.481  12.714   7.842  0.5732  0.3383  0.1928
   40TAL   C200 3916   4.499  12.851   7.786 -0.0185 -0.0245  0.5854
   41HTM   C201 3917   4.183  12.404   7.619  0.3084 -0.0163  0.0503
   41HTM   C202 3918   4.071  12.388   7.544  0.1934 -0.0285  0.2265
   41HTM   C203 3919   4.030  12.506   7.473  0.2110 -0.1025  0.0927
   41HTM   C204 3920   4.112  12.613   7.493  0.3388 -0.1469 -0.1853
   41HTM    S21 3921   4.248  12.572   7.605  0.4486 -0.0980 -0.3006
   42TAL   C205 3922   3.906  12.505   7.374 -0.6202 -0.2451  0.1907
   42TAL   C206 3923   3.801  12.393   7.384 -0.7051 -0.3142  0.2813
   42TAL   C207 3924   3.687  12.427   7.288 -0.1676  0.6094 -0.2039
   42TAL   C208 3925   3.606  12.307   7.262 -0.0587 -0.3389  0.2150
   42TAL   C209 3926   3.470  12.319   7.198  0.3446 -0.7570 -0.1381
   42TAL   C210 3927   3.409  12.185   7.156 -0.1562 -0.2169 -0.0474
   43HTM   C211 3928   4.097  12.759   7.461  0.2311 -0.1428  0.1427
   43HTM   C212 3929   4.183  12.858   7.499  0.3006 -0.0441 -0.2615
   43HTM   C213 3930   4.150  12.988   7.446  0.0966 -0.1435 -0.3791
   43HTM   C214 3931   4.039  12.988   7.367 -0.1281 -0.3182 -0.0651
   43HTM    S22 3932   3.967  12.823   7.354 -0.0998 -0.3709  0.4077
   44TAL   C215 3933   4.242  13.104   7.472  0.1520  0.0172 -0.4528
   44TAL   C216 3934   4.357  13.090   7.572  0.6093 -1.0561 -0.2573
   44TAL   C217 3935   4.414  13.233   7.588 -0.5410  0.4210 -0.6600
   44TAL   C218 3936   4.532  13.225   7.681 -0.4198  0.8850 -0.6456
   44TAL   C219 3937   4.625  13.347   7.672  0.0962 -0.2137 -0.3395
   44TAL   C220 3938   4.718  13.338   7.792 -0.0524  0.3076 -0.1774
   45HTM   C221 3939   3.976  13.099   7.289 -0.3385 -0.0764 -0.0249
   45HTM   C222 3940   4.014  13.230   7.283 -0.5469  0.0186  0.7172
   45HTM   C223 3941   3.939  13.308   7.188 -0.3120  0.3183  0.7758
   45HTM   C224 3942   3.845  13.236   7.121  0.0758  0.4526  0.0784
   45HTM    S23 3943   3.843  13.064   7.173  0.1749  0.2087 -0.7126
   46TAL   C225 3944   3.959  13.457   7.166  0.0204 -0.1779 -0.7398
   46TAL   C226 3945   4.067  13.518   7.251  1.1209 -0.5379 -0.0609
   46TAL   C227 3946   4.076  13.669   7.270 -0.4234 -0.0099  0.3233
   46TAL   C228 3947   4.177  13.697   7.381 -0.1623  0.1992 -0.0531
   46TAL   C229 3948   4.201  13.849   7.390  0.3050 -0.2912 -0.1813
   46TAL   C230 3949   4.275  13.878   7.518  0.0451 -0.6676 -0.2557
   47HTM   C231 3950   3.753  13.268   7.012 -0.1809  0.2582  0.0495
   47HTM   C232 3951   3.687  13.177   6.935 -0.0285  0.1454  0.0513
   47HTM   C233 3952   3.604  13.236   6.833  0.2353 -0.0067 -0.2527
   47HTM   C234 3953   3.607  13.373   6.832  0.2841 -0.0104 -0.4860
   47HTM    S24 3954   3.716  13.437   6.960 -0.0017  0.1801 -0.3390
   48TAL   C235 3955   3.514  13.153   6.737  0.1480 -0.0658  0.1453
   48TAL   C236 3956   3.444  13.025   6.784  0.6808 -0.4382  0.4340
   48TAL   C237 3957   3.380  12.948   6.670  0.3067 -0.3516 -0.1356
   48TAL   C238 3958   3.272  12.844   6.713 -0.4216 -1.1252  0.1089
   48TAL   C239 3959   3.221  12.767   6.593 -0.3828  0.5725  0.7201
   48TAL   C240 3960   3.281  12.633   6.554  0.9514 -0.1177  0.2731
    1HTM     C1 3961   7.324   8.579   6.863 -0.1525  0.0719  0.4688
    1HTM     C2 3962   7.248   8.680   6.811  0.0412  0.3333  0.6936
    1HTM     C3 3963   7.326   8.787   6.754  0.2463  0.1860  0.6940
    1HTM     C4 3964   7.461   8.768   6.763  0.2091 -0.1881  0.4701
    1HTM     S1 3965   7.500   8.611   6.844 -0.0905 -0.3843  0.2393
    2TAL     C5 3966   7.258   8.895   6.672  0.6126 -0.0469  1.0062
    2TAL     C6 3967   7.174   9.002   6.744 -0.8306  0.5318  0.2242
    2TAL     C7 3968   7.086   9.098   6.670  0.6775 -0.5318  0.0651
    2TAL     C8 3969   6.968   9.033   6.600  0.3182  0.0541  0.1752
    2TAL     C9 3970   6.853   9.112   6.551 -0.1226  0.4808 -0.3550
    2TAL    C10 3971   6.755   9.027   6.469 -0.3274  0.1813  0.0929
    3HTM    C11 3972   7.573   8.846   6.709 -0.3005  0.4021  0.2269
    3HTM    C12 3973   7.701   8.802   6.691 -0.3662  0.1345  0.3972
    3HTM    C13 3974   7.787   8.901   6.631 -0.1366 -0.1249  0.3023
    3HTM    C14 3975   7.725   9.019   6.603  0.1045 -0.0545  0.0601
    3HTM     S2 3976   7.551   9.015   6.651  0.0593  0.3478 -0.0685
    4TAL    C15 3977   7.938   8.868   6.616 -0.6970 -0.2653  0.2653
    4TAL    C16 3978   7.992   8.730   6.580  0.2411  0.1541 -0.6781
    4TAL    C17 3979   7.937   8.687   6.438 -0.0082 -0.8667 -0.4339
    4TAL    C18 3980   7.981   8.543   6.389  0.0821 -0.4980  0.1023
    4TAL    C19 3981   7.941   8.426   6.471 -0.7590  0.2068 -0.8029
    4TAL    C20 3982   7.792   8.401   6.485  0.2175  0.1448 -0.0327
    5HTM    C21 3983   7.760   9.140   6.532  0.4828 -0.0760  0.2458
    5HTM    C22 3984   7.857   9.139   6.437  0.2215 -0.0507 -0.0250
    5HTM    C23 3985   7.880   9.267   6.375 -0.1752 -0.1061 -0.2878
    5HTM    C24 3986   7.799   9.366   6.423 -0.2166 -0.1737 -0.2171
    5HTM     S3 3987   7.688   9.304   6.551  0.2462 -0.1725  0.1900
    6TAL    C25 3988   7.978   9.276   6.256 -0.0098  0.4301 -0.3168
    6TAL    C26 3989   8.120   9.328   6.302  0.2330  0.2176  0.4273
    6TAL    C27 3990   8.220   9.317   6.180  0.0406 -0.2170 -0.7394
    6TAL    C28 3991   8.367   9.348   6.191  0.0874  0.1556  0.0634
    6TAL    C29 3992   8.446   9.313   6.314  0.1042 -0.0747  0.0513
    6TAL    C30 3993   8.598   9.330   6.298 -0.4522 -0.2374  0.8538
    7HTM    C31 3994   7.782   9.504   6.366 -0.2694 -0.2153  0.1546
    7HTM    C32 3995   7.665   9.571   6.388  0.0584  0.2447  0.5279
    7HTM    C33 3996   7.659   9.701   6.326  0.3700  0.2680  0.5465
    7HTM    C34 3997   7.772   9.733   6.257  0.2794 -0.1743  0.1877
    7HTM     S4 3998   7.895   9.601   6.264 -0.2101 -0.6583 -0.2049
    8TAL    C35 3999   7.538   9.789   6.333 -0.4516  0.1440  0.3034
    8TAL    C36 4000   7.410   9.728   6.275 -0.3164 -0.5387 -0.6426
    8TAL    C37 4001   7.301   9.833   6.241 -0.3503 -0.0853 -0.3459
    8TAL    C38 4002   7.175   9.771   6.182 -0.3865  0.4947  0.7495
    8TAL    C39 4003   7.078   9.866   6.132  0.4801 -0.3858 -0.0839
    8TAL    C40 4004   6.966   9.777   6.077  0.3110 -0.3899 -0.4336
    9HTM    C41 4005   7.813   9.853   6.181  0.4295  0.2190  0.1796
    9HTM    C42 4006   7.930   9.862   6.112  0.3357  0.1990  0.0176
    9HTM    C43 4007   7.941   9.982   6.032  0.1240  0.0585 -0.2232
    9HTM    C44 4008   7.832  10.063   6.041  0.0568 -0.0286 -0.2446
    9HTM     S5 4009   7.707   9.995   6.151  0.2572  0.0607  0.0397
   10TAL    C45 4010   8.075  10.005   5.954  0.2358 -0.1178 -0.0644
   10TAL    C46 4011   8.192  10.028   6.046  0.0671  0.2069 -0.4649
   10TAL    C47 4012   8.311  10.057   5.963  0.5929  0.5319  1.2609
   10TAL    C48 4013   8.425  10.076   6.056  0.1904  0.3783  0.1636
   10TAL    C49 4014   8.541  10.161   5.994 -0.1275  0.5734  0.0420
   10TAL    C50 4015   8.654  10.173   6.098  0.3625  0.0269  0.3415
   11HTM    C51 4016   7.806  10.191   5.976  0.2835 -0.2239  0.1577
   11HTM    C52 4017   7.785  10.214   5.844 -0.1342 -0.4256  0.1860
   11HTM    C53 4018   7.746  10.349   5.814 -0.3262 -0.4971  0.1144
   11HTM    C54 4019   7.736  10.429   5.923 -0.0551 -0.3499  0.0315
   11HTM     S6 4020   7.777  10.339   6.075  0.4685 -0.1078  0.0376
   12TAL    C55 4021   7.725  10.392   5.669 -0.0002  0.0237  0.3550
   12TAL    C56 4022   7.613  10.317   5.599  0.0500 -0.1918  0.0505
   12TAL    C57 4023   7.469  10.362   5.620  0.1774  0.0433  0.3387
   12TAL    C58 4024   7.370  10.291   5.530  0.0732 -0.2818  0.2224
   12TAL    C59 4025   7.238  10.360   5.547  0.0141  0.0050  0.1427
   12TAL    C60 4026   7.123  10.302   5.464  0.1901 -0.3059  0.3765
   13HTM    C61 4027   7.704  10.573   5.937 -0.3059 -0.3047 -0.4003
   13HTM    C62 4028   7.730  10.630   6.058  0.1738 -0.6122 -0.3545
   13HTM    C63 4029   7.717  10.774   6.058  0.4654 -0.5856 -0.0134
   13HTM    C64 4030   7.682  10.826   5.937  0.2075 -0.2580  0.2010
   13HTM     S7 4031   7.662  10.696   5.813 -0.4278  0.0450 -0.0127
   14TAL    C65 4032   7.728  10.869   6.182  0.0615  0.1746  0.9675
   14TAL    C66 4033   7.794  10.818   6.306  0.1890  0.5155  0.4840
   14TAL    C67 4034   7.779  10.891   6.438  0.2764  0.3579  0.5247
   14TAL    C68 4035   7.813  11.042   6.447  0.3318  0.4985 -0.2986
   14TAL    C69 4036   7.791  11.107   6.582 -0.6586  0.0687  0.8241
   14TAL    C70 4037   7.902  11.078   6.674 -0.0271  0.4064 -0.5418
   15HTM    C71 4038   7.671  10.963   5.894  0.0576 -0.1678  0.0931
   15HTM    C72 4039   7.573  11.021   5.819  0.2108 -0.1419 -0.0901
   15HTM    C73 4040   7.584  11.165   5.811  0.2024 -0.1342  0.0231
   15HTM    C74 4041   7.692  11.215   5.878  0.0429 -0.1543  0.2930
   15HTM     S8 4042   7.787  11.085   5.959 -0.1103 -0.1848  0.4259
   16TAL    C75 4043   7.482  11.247   5.733  0.6498  0.0397  0.1051
   16TAL    C76 4044   7.464  11.213   5.588  0.1668  0.5837 -0.4092
   16TAL    C77 4045   7.393  11.324   5.505  0.1093  0.0165  0.5020
   16TAL    C78 4046   7.489  11.434   5.455 -0.6460 -0.6257  0.1826
   16TAL    C79 4047   7.414  11.571   5.419 -0.3275  0.5424  0.0068
   16TAL    C80 4048   7.513  11.685   5.384  0.3292  0.5173  0.1463
   17HTM    C81 4049   7.747  11.344   5.888 -0.3968  0.2682  0.2525
   17HTM    C82 4050   7.828  11.394   5.985 -0.2534  0.2251  0.1543
   17HTM    C83 4051   7.857  11.534   5.970 -0.1049  0.1837  0.0546
   17HTM    C84 4052   7.798  11.591   5.862 -0.1351  0.1951  0.0769
   17HTM     S9 4053   7.700  11.472   5.769 -0.3552  0.2595  0.2264
   18TAL    C85 4054   7.954  11.602   6.074  0.0886  0.1945 -0.2169
   18TAL    C86 4055   7.892  11.668   6.193 -0.3222  0.9424  0.1801
   18TAL    C87 4056   7.796  11.786   6.186 -0.7565  0.0381  0.6042
   18TAL    C88 4057   7.731  11.815   6.320 -0.4433 -0.0126  1.0344
   18TAL    C89 4058   7.821  11.882   6.422 -0.5210 -0.3958  0.6126
   18TAL    C90 4059   7.752  11.977   6.522 -0.4141  0.4352 -0.5513
   19HTM    C91 4060   7.798  11.728   5.822 -0.1622  0.3584 -0.1413
   19HTM    C92 4061   7.696  11.795   5.760  0.0668  0.5202 -0.3419
   19HTM    C93 4062   7.731  11.929   5.721  0.3269  0.4987 -0.1879
   19HTM    C94 4063   7.858  11.965   5.754  0.2963  0.3204  0.1304
   19HTM    S10 4064   7.945  11.830   5.836 -0.0663  0.1648  0.2609
   20TAL    C95 4065   7.633  12.025   5.661  0.0465 -0.4736 -0.2747
   20TAL    C96 4066   7.494  12.037   5.725 -0.0443 -0.0457 -0.1133
   20TAL    C97 4067   7.387  11.985   5.626  0.0297 -0.5905  0.4731
   20TAL    C98 4068   7.246  12.021   5.665  0.7733 -0.3253  0.0847
   20TAL    C99 4069   7.137  12.012   5.568  0.0160  0.0114  0.1209
   20TAL   C100 4070   7.009  12.087   5.598 -0.0149  0.7622  0.0211
   21HTM   C101 4071   7.946  12.082   5.726  0.2910  0.0165 -0.0328
   21HTM   C102 4072   7.905  12.211   5.703  0.3078  0.0174 -0.0565
   21HTM   C103 4073   8.013  12.300   5.670  0.3080 -0.0210 -0.1595
   21HTM   C104 4074   8.136  12.240   5.667  0.2914 -0.0513 -0.2139
   21HTM    S11 4075   8.124  12.064   5.706  0.2744 -0.0333 -0.1388
   22TAL   C105 4076   7.988  12.449   5.660  0.1794 -0.5308 -0.3185
   22TAL   C106 4077   7.920  12.512   5.784  0.2403  0.8249  0.0665
   22TAL   C107 4078   7.983  12.496   5.924  0.1250 -0.6541  0.0539
   22TAL   C108 4079   8.134  12.510   5.940  0.6671  0.7843 -1.1807
   22TAL   C109 4080   8.186  12.477   6.080 -0.1239  0.0676 -0.4892
   22TAL   C110 4081   8.335  12.479   6.090  0.4930  0.5423 -0.0130
   23HTM   C111 4082   8.266  12.297   5.640  0.0811 -0.2198  0.1605
   23HTM   C112 4083   8.308  12.425   5.659 -0.3686 -0.0564  0.0696
   23HTM   C113 4084   8.443  12.448   5.613 -0.5398  0.4482 -0.1836
   23HTM   C114 4085   8.503  12.338   5.560 -0.2210  0.6695 -0.2855
   23HTM    S12 4086   8.393  12.195   5.564  0.3244  0.2546 -0.0684
   24TAL   C115 4087   8.509  12.583   5.629 -0.1638  0.9390 -0.4751
   24TAL   C116 4088   8.447  12.700   5.699  0.0507 -0.2908  0.4184
   24TAL   C117 4089   8.311  12.755   5.649 -0.0281 -0.3710 -0.9191
   24TAL   C118 4090   8.240  12.854   5.742  0.0172 -0.1225  0.3426
   24TAL   C119 4091   8.123  12.929   5.686 -0.7719  0.5421 -0.1373
   24TAL   C120 4092   7.994  12.849   5.665 -0.5821  0.9037  0.0076
   25HTM   C121 4093   8.634  12.322   5.499  0.1617 -0.3705  0.6892
   25HTM   C122 4094   8.765  12.319   5.534  0.1974 -0.4861  0.5500
   25HTM   C123 4095   8.853  12.275   5.429  0.0854 -0.2133  0.3407
   25HTM   C124 4096   8.788  12.244   5.313 -0.0350  0.1105  0.3202
   25HTM    S13 4097   8.610  12.268   5.328 -0.0172  0.0957  0.5659
   26TAL   C125 4098   9.005  12.269   5.443  0.3781  0.0800 -0.0309
   26TAL   C126 4099   9.073  12.281   5.577 -0.0501  0.0373  0.2752
   26TAL   C127 4100   9.230  12.289   5.576  0.9429  0.2437  0.6434
   26TAL   C128 4101   9.299  12.287   5.711  0.5335 -0.3507  0.6355
   26TAL   C129 4102   9.301  12.155   5.788 -0.4309  0.5836  0.6549
   26TAL   C130 4103   9.399  12.147   5.902 -0.6362  0.2734 -0.2218
   27HTM   C131 4104   8.834  12.210   5.181  0.4530 -0.3948 -0.5249
   27HTM   C132 4105   8.881  12.098   5.119  0.5531 -0.0745 -1.0381
   27HTM   C133 4106   8.869  12.100   4.976  0.1788  0.3966 -0.9992
   27HTM   C134 4107   8.812  12.215   4.928 -0.2063  0.4356 -0.4563
   27HTM    S14 4108   8.769  12.328   5.061 -0.1260 -0.1241  0.0515
   28TAL   C135 4109   8.916  11.983   4.883 -0.3651  0.1526 -0.2693
   28TAL   C136 4110   8.987  11.863   4.942 -0.8453  0.4219  0.2848
   28TAL   C137 4111   9.127  11.890   4.998 -0.1513 -0.2784  0.0991
   28TAL   C138 4112   9.217  11.981   4.913  0.5125  0.0394  0.6267
   28TAL   C139 4113   9.347  12.024   4.982 -0.1318  0.5202  0.0937
   28TAL   C140 4114   9.328  12.134   5.087 -0.3907  0.2793 -0.5845
   29HTM   C141 4115   8.737  12.234   4.804 -0.2785  0.2177  0.2812
   29HTM   C142 4116   8.773  12.265   4.676 -0.1378  0.0355  0.2751
   29HTM   C143 4117   8.663  12.308   4.594 -0.0496 -0.0923  0.0896
   29HTM   C144 4118   8.543  12.309   4.659 -0.1233 -0.0077 -0.0466
   29HTM    S15 4119   8.560  12.256   4.830 -0.3114  0.2421  0.0508
   30TAL   C145 4120   8.683  12.370   4.451 -0.0196 -1.2006 -0.5374
   30TAL   C146 4121   8.768  12.499   4.436 -0.9034  0.2917  0.1143
   30TAL   C147 4122   8.731  12.618   4.530 -0.2016 -0.2840 -0.3324
   30TAL   C148 4123   8.815  12.745   4.520 -0.0652 -0.4559 -1.0235
   30TAL   C149 4124   8.969  12.734   4.547  0.3822 -0.5300 -0.4547
   30TAL   C150 4125   9.026  12.872   4.510  0.1562  0.2138  0.4407
   31HTM   C151 4126   8.411  12.345   4.613 -0.0315  0.2051  0.0338
   31HTM   C152 4127   8.364  12.471   4.591 -0.1116  0.1463 -0.1364
   31HTM   C153 4128   8.220  12.480   4.590 -0.1187  0.0097 -0.4025
   31HTM   C154 4129   8.157  12.361   4.611 -0.0437 -0.0357 -0.4354
   31HTM    S16 4130   8.276  12.227   4.634  0.0430  0.0917 -0.1299
   32TAL   C155 4131   8.135  12.605   4.563 -0.3296  0.2604 -0.1199
   32TAL   C156 4132   8.193  12.740   4.511  0.5202  0.2902  0.3620
   32TAL   C157 4133   8.296  12.819   4.584  1.1270  0.3786 -1.0657
   32TAL   C158 4134   8.300  12.817   4.736  0.0619 -0.5624 -0.1420
   32TAL   C159 4135   8.397  12.918   4.801 -0.1816 -0.1101  0.3491
   32TAL   C160 4136   8.545  12.889   4.809  0.0889 -0.1004 -0.0987
   33HTM   C161 4137   8.021  12.318   4.578  0.0576  0.2222 -0.6082
   33HTM   C162 4138   7.988  12.189   4.547  0.0703  0.1316 -0.2501
   33HTM   C163 4139   7.846  12.165   4.539  0.0651  0.0134  0.1471
   33HTM   C164 4140   7.771  12.276   4.563  0.0481  0.0138  0.0919
   33HTM    S17 4141   7.874  12.420   4.599  0.0369  0.1648 -0.4703
   34TAL   C165 4142   7.784  12.033   4.505  0.0528 -0.0447  0.6736
   34TAL   C166 4143   7.792  11.970   4.357  0.4921 -0.0309  0.1920
   34TAL   C167 4144   7.929  11.950   4.303 -0.4701 -0.5475  0.3047
   34TAL   C168 4145   7.953  11.873   4.173  0.1195  0.6179 -0.2356
   34TAL   C169 4146   7.953  11.716   4.185 -0.0595 -0.3698 -0.0769
   34TAL   C170 4147   8.084  11.662   4.238 -0.2069  0.6963 -0.8494
   35HTM   C171 4148   7.628  12.302   4.568 -0.3316 -0.1730  0.2902
   35HTM   C172 4149   7.531  12.214   4.605 -0.3963 -0.1092  0.2728
   35HTM   C173 4150   7.397  12.267   4.595 -0.3631 -0.0401  0.1955
   35HTM   C174 4151   7.392  12.396   4.550 -0.2728 -0.0513  0.1539
   35HTM    S18 4152   7.557  12.460   4.516 -0.2228 -0.1509  0.2097
   36TAL   C175 4153   7.276  12.175   4.627 -0.1444 -0.0547  0.2990
   36TAL   C176 4154   7.219  12.164   4.770 -0.4346  0.3214 -0.6498
   36TAL   C177 4155   7.297  12.073   4.862 -0.5108 -0.2139  0.2755
   36TAL   C178 4156   7.222  12.037   4.991  0.4841  0.3339 -0.4623
   36TAL   C179 4157   7.295  11.951   5.095 -0.5599 -0.1092 -0.1742
   36TAL   C180 4158   7.210  11.954   5.215 -0.4087 -0.4640 -1.0356
   37HTM   C181 4159   7.277  12.470   4.509  0.0098 -0.5695 -0.0314
   37HTM   C182 4160   7.250  12.595   4.556  0.0682 -0.7992  0.6363
   37HTM   C183 4161   7.116  12.640   4.527  0.0966 -0.5758  0.8504
   37HTM   C184 4162   7.041  12.549   4.459  0.0593 -0.1758  0.3458
   37HTM    S19 4163   7.135  12.398   4.426 -0.0142 -0.0493 -0.4449
   38TAL   C185 4164   7.070  12.777   4.566 -0.6576  0.1885 -0.0835
   38TAL   C186 4165   7.157  12.905   4.552  0.4957 -0.8133 -0.6272
   38TAL   C187 4166   7.183  12.961   4.411  0.4929  0.6776  0.3303
   38TAL   C188 4167   7.277  13.083   4.410 -0.4047 -0.1997  0.0835
   38TAL   C189 4168   7.265  13.174   4.290  0.1934  0.0059  0.4964
   38TAL   C190 4169   7.303  13.321   4.319 -0.5107 -0.5566  0.2916
   39HTM   C191 4170   6.909  12.559   4.410  0.7306  0.5220  0.1658
   39HTM   C192 4171   6.791  12.514   4.462  0.9830  0.4576  0.6909
   39HTM   C193 4172   6.677  12.546   4.381  0.6478  0.0538  1.0033
   39HTM   C194 4173   6.707  12.615   4.267  0.1396 -0.1898  0.7164
   39HTM    S20 4174   6.884  12.645   4.254  0.0438  0.0742  0.0244
   40TAL   C195 4175   6.532  12.498   4.407  0.1191 -0.4664 -0.0357
   40TAL   C196 4176   6.515  12.350   4.439 -0.7394 -0.3555  0.3700
   40TAL   C197 4177   6.377  12.316   4.479  0.5637 -0.1019  0.4171
   40TAL   C198 4178   6.345  12.165   4.473  0.3293  0.0580 -0.0921
   40TAL   C199 4179   6.202  12.141   4.517  0.6486 -0.4959 -0.3311
   40TAL   C200 4180   6.173  11.994   4.511  0.0386 -0.0914  0.9214
   41HTM   C201 4181   6.623  12.665   4.161  0.4247 -0.4134 -0.0619
   41HTM   C202 4182   6.577  12.790   4.131  0.8237 -0.2367  0.0556
   41HTM   C203 4183   6.480  12.792   4.025  0.5677  0.1340  0.2947
   41HTM   C204 4184   6.452  12.669   3.974 -0.0264  0.2403  0.3601
   41HTM    S21 4185   6.546  12.540   4.057 -0.3111 -0.1226  0.1226
   42TAL   C205 4186   6.412  12.931   3.995 -0.6138 -0.3166 -0.1740
   42TAL   C206 4187   6.279  12.946   3.912 -0.1992  0.2280  0.1234
   42TAL   C207 4188   6.164  12.961   4.002  0.5738  0.6565 -0.0086
   42TAL   C208 4189   6.033  12.971   3.931 -0.1336 -0.0239 -0.3448
   42TAL   C209 4190   5.908  12.979   4.010  0.3398  0.6332 -0.3575
   42TAL   C210 4191   5.894  13.107   4.083 -0.1789  0.2392 -0.3117
   43HTM   C211 4192   6.353  12.619   3.889  0.1288  0.0426 -0.1133
   43HTM   C212 4193   6.311  12.664   3.767 -0.0234  0.2313  0.0075
   43HTM   C213 4194   6.212  12.580   3.706 -0.1500  0.3630  0.0319
   43HTM   C214 4195   6.178  12.471   3.781 -0.0945  0.2746 -0.0701
   43HTM    S22 4196   6.270  12.467   3.936  0.1241  0.0163 -0.2062
   44TAL   C215 4197   6.177  12.601   3.557 -0.9012 -0.0214 -0.0557
   44TAL   C216 4198   6.073  12.533   3.469  0.0684 -0.3469 -0.8995
   44TAL   C217 4199   6.107  12.391   3.433  0.4082  0.0656  0.0618
   44TAL   C218 4200   5.991  12.317   3.364  0.4584  0.1028 -0.6198
   44TAL   C219 4201   6.034  12.171   3.343  0.5457 -0.7673  0.6069
   44TAL   C220 4202   5.962  12.109   3.224 -0.4073  0.0886  0.3666
   45HTM   C221 4203   6.089  12.361   3.761 -0.2488 -0.0889 -0.9916
   45HTM   C222 4204   5.954  12.368   3.750 -0.2413 -0.3021 -1.2419
   45HTM   C223 4205   5.887  12.241   3.766 -0.1202 -0.2923 -0.6274
   45HTM   C224 4206   5.973  12.137   3.788 -0.0350 -0.0716  0.0919
   45HTM    S23 4207   6.144  12.192   3.792 -0.1020  0.1424  0.0483
   46TAL   C225 4208   5.736  12.233   3.756  0.1334  0.2209 -0.3113
   46TAL   C226 4209   5.642  12.327   3.824  0.0211  0.3428  0.6564
   46TAL   C227 4210   5.677  12.330   3.973 -0.7732  0.2080 -0.6926
   46TAL   C228 4211   5.624  12.463   4.031  0.6772 -0.2297  0.0026
   46TAL   C229 4212   5.660  12.596   3.975 -0.3068 -0.0191  0.1460
   46TAL   C230 4213   5.805  12.644   3.986 -0.1173 -0.2427  0.5796
   47HTM   C231 4214   5.945  11.999   3.816 -0.5819 -0.1024  0.2037
   47HTM   C232 4215   5.828  11.942   3.854 -0.3798 -0.6341  0.0314
   47HTM   C233 4216   5.838  11.801   3.882  0.0927 -0.7112 -0.5128
   47HTM   C234 4217   5.964  11.751   3.866  0.2511 -0.2385 -0.7556
   47HTM    S24 4218   6.080  11.879   3.814 -0.1878  0.3453 -0.3121
   48TAL   C235 4219   5.724  11.711   3.924  0.5540 -0.2463  0.3123
   48TAL   C236 4220   5.587  11.777   3.963 -0.1931 -0.0552 -0.0602
   48TAL   C237 4221   5.511  11.833   3.846  0.4730 -0.5604 -0.0982
   48TAL   C238 4222   5.398  11.923   3.892  0.0833 -0.3577  0.2756
   48TAL   C239 4223   5.306  11.980   3.785 -0.0007  0.3249  0.3521
   48TAL   C240 4224   5.380  12.057   3.672 -0.1858 -0.6764  0.1823
    1HTM     C1 4225   6.184   1.452   1.106 -0.9909 -0.2557  0.3194
    1HTM     C2 4226   6.052   1.419   1.098 -0.8984 -0.7144  0.6025
    1HTM     C3 4227   6.025   1.280   1.123 -0.3364 -0.8588  0.4288
    1HTM     C4 4228   6.136   1.206   1.150 -0.0007 -0.5103  0.0132
    1HTM     S1 4229   6.285   1.308   1.146 -0.3711  0.0315 -0.1925
    2TAL     C5 4230   5.881   1.225   1.116 -0.2877  0.0077  0.2594
    2TAL     C6 4231   5.789   1.268   1.009  0.2822 -0.2185 -0.1579
    2TAL     C7 4232   5.641   1.223   1.035 -0.3954 -0.0506 -0.2471
    2TAL     C8 4233   5.525   1.244   0.936 -0.3213  0.3287 -0.1501
    2TAL     C9 4234   5.496   1.374   0.874  0.0268 -0.4071 -0.4446
    2TAL    C10 4235   5.539   1.404   0.726  0.6489 -0.1266 -0.3626
    3HTM    C11 4236   6.156   1.068   1.189  0.1436 -0.5554  0.0539
    3HTM    C12 4237   6.266   0.990   1.168 -0.2186 -0.9623 -0.3422
    3HTM    C13 4238   6.252   0.856   1.218 -0.6189 -0.9766 -0.4926
    3HTM    C14 4239   6.131   0.832   1.277 -0.5624 -0.5804 -0.2110
    3HTM     S2 4240   6.025   0.978   1.273  0.0053 -0.1555  0.2696
    4TAL    C15 4241   6.349   0.743   1.198  0.2864 -0.0218  0.3554
    4TAL    C16 4242   6.478   0.758   1.106  0.1750 -0.5750 -0.1428
    4TAL    C17 4243   6.465   0.824   0.966  0.0512  0.3981 -0.3467
    4TAL    C18 4244   6.591   0.798   0.890 -0.2564  0.1278 -0.0853
    4TAL    C19 4245   6.615   0.675   0.815 -0.0427  0.0718 -0.8241
    4TAL    C20 4246   6.509   0.640   0.713 -0.0876  0.2006  0.3353
    5HTM    C21 4247   6.074   0.718   1.331  0.1898  0.0054 -0.3482
    5HTM    C22 4248   6.037   0.705   1.462  0.2141  0.1940 -0.3217
    5HTM    C23 4249   5.951   0.592   1.486  0.1631  0.2687 -0.1539
    5HTM    C24 4250   5.923   0.519   1.375  0.1005  0.1370 -0.0524
    5HTM     S3 4251   6.004   0.588   1.229  0.1004 -0.0934 -0.1617
    6TAL    C25 4252   5.908   0.564   1.630 -0.0173 -0.4097 -0.0541
    6TAL    C26 4253   5.770   0.623   1.669 -0.1956 -0.1322  0.5344
    6TAL    C27 4254   5.754   0.774   1.660  0.5611 -0.4707  0.2359
    6TAL    C28 4255   5.851   0.864   1.732 -0.3925  0.0965  0.1326
    6TAL    C29 4256   5.843   1.014   1.708 -0.3117  0.0523 -1.0580
    6TAL    C30 4257   5.925   1.063   1.594 -0.0311  0.6779 -0.1363
    7HTM    C31 4258   5.829   0.405   1.348  0.2169 -0.1286 -0.1054
    7HTM    C32 4259   5.825   0.328   1.236 -0.0079 -0.2574 -0.0082
    7HTM    C33 4260   5.724   0.225   1.240 -0.1514 -0.1080  0.2178
    7HTM    C34 4261   5.652   0.224   1.356 -0.0355  0.1348  0.2930
    7HTM     S4 4262   5.706   0.354   1.469  0.2654  0.1940  0.0826
    8TAL    C35 4263   5.708   0.138   1.116 -0.1617  0.1521  0.6394
    8TAL    C36 4264   5.734  -0.011   1.118 -0.5246  0.3921  0.0393
    8TAL    C37 4265   5.878  -0.063   1.154  0.3512  0.6735 -0.1898
    8TAL    C38 4266   5.890  -0.204   1.200 -0.9184 -0.0020 -0.4517
    8TAL    C39 4267   6.031  -0.252   1.232  0.2343  1.0910  0.0956
    8TAL    C40 4268   6.037  -0.392   1.298 -0.3436  0.2018 -0.0454
    9HTM    C41 4269   5.558   0.125   1.393 -0.2230  0.0387 -0.6410
    9HTM    C42 4270   5.422   0.129   1.386 -0.2203 -0.1128 -0.8065
    9HTM    C43 4271   5.359   0.001   1.403 -0.1111 -0.1388 -0.6027
    9HTM    C44 4272   5.446  -0.101   1.424 -0.0305 -0.0070 -0.2817
    9HTM     S5 4273   5.617  -0.043   1.422 -0.0869  0.1611 -0.2114
   10TAL    C45 4274   5.211  -0.018   1.379  0.0669 -0.2302  0.4266
   10TAL    C46 4275   5.118   0.089   1.332 -0.4353  0.4524 -0.0245
   10TAL    C47 4276   4.971   0.050   1.333 -0.5178  0.1739  0.1204
   10TAL    C48 4277   4.873   0.150   1.257 -0.1734 -0.1196  0.6829
   10TAL    C49 4278   4.729   0.120   1.279  0.7318  0.3897  0.0638
   10TAL    C50 4279   4.632   0.201   1.195  0.0708 -0.5541  0.4155
   11HTM    C51 4280   5.433  -0.247   1.431  0.0908 -0.2477  0.6847
   11HTM    C52 4281   5.324  -0.322   1.464  0.0708 -0.1378  0.8685
   11HTM    C53 4282   5.350  -0.464   1.466 -0.1395 -0.1817  0.5505
   11HTM    C54 4283   5.478  -0.496   1.434 -0.2798 -0.3243  0.1241
   11HTM     S6 4284   5.577  -0.350   1.399 -0.1565 -0.4155  0.0911
   12TAL    C55 4285   5.252  -0.566   1.516  1.1799  0.1791  0.5004
   12TAL    C56 4286   5.108  -0.534   1.549 -0.1698 -0.2921 -0.2011
   12TAL    C57 4287   5.016  -0.501   1.432 -0.0925  0.1337 -0.0411
   12TAL    C58 4288   4.881  -0.438   1.466 -0.4046  1.0164 -0.5142
   12TAL    C59 4289   4.807  -0.389   1.354 -0.0734 -0.0712 -1.1060
   12TAL    C60 4290   4.674  -0.329   1.401  0.0857  0.3361  0.3293
   13HTM    C61 4291   5.551  -0.622   1.428  0.0417 -0.0701 -0.3802
   13HTM    C62 4292   5.510  -0.749   1.452  0.0167 -0.1101 -0.6415
   13HTM    C63 4293   5.616  -0.846   1.451  0.0672 -0.0567 -0.3271
   13HTM    C64 4294   5.739  -0.792   1.428  0.1308  0.0244  0.1739
   13HTM     S7 4295   5.730  -0.614   1.404  0.1318  0.0396  0.2884
   14TAL    C65 4296   5.592  -0.998   1.470  0.1442 -0.4597 -0.1284
   14TAL    C66 4297   5.452  -1.050   1.498 -0.1973  0.0920 -0.1865
   14TAL    C67 4298   5.341  -1.023   1.396 -0.0375 -0.6296 -0.5133
   14TAL    C68 4299   5.380  -1.030   1.250 -0.7136 -0.2703  0.1721
   14TAL    C69 4300   5.303  -0.936   1.158  0.3009 -0.0476 -0.2252
   14TAL    C70 4301   5.378  -0.929   1.031 -0.1644  0.2041 -0.1041
   15HTM    C71 4302   5.876  -0.851   1.427 -0.2016 -0.1735  0.1839
   15HTM    C72 4303   5.987  -0.772   1.432 -0.2937 -0.0191 -0.2354
   15HTM    C73 4304   6.111  -0.846   1.435 -0.1879  0.1507 -0.4165
   15HTM    C74 4305   6.094  -0.981   1.433 -0.0151  0.1248 -0.1352
   15HTM     S8 4306   5.920  -1.026   1.427  0.0273 -0.1169  0.3841
   16TAL    C75 4307   6.252  -0.789   1.435  0.5750 -0.4883  0.2845
   16TAL    C76 4308   6.278  -0.635   1.433 -0.0616  0.0559 -0.1746
   16TAL    C77 4309   6.428  -0.595   1.443 -0.1501 -0.3393 -0.1830
   16TAL    C78 4310   6.437  -0.456   1.503  0.0646 -0.6411 -0.4631
   16TAL    C79 4311   6.583  -0.413   1.532  0.0681  0.1705 -0.2121
   16TAL    C80 4312   6.609  -0.300   1.630  0.1098 -0.2719  0.1189
   17HTM    C81 4313   6.191  -1.086   1.417 -0.0733 -0.1180  0.1213
   17HTM    C82 4314   6.246  -1.157   1.520 -0.0596 -0.1800  0.0709
   17HTM    C83 4315   6.317  -1.275   1.477  0.0329 -0.0916 -0.0196
   17HTM    C84 4316   6.316  -1.294   1.342  0.0900  0.0377 -0.0381
   17HTM     S9 4317   6.224  -1.163   1.258  0.0303  0.0578  0.0580
   18TAL    C85 4318   6.379  -1.362   1.589 -0.4592 -0.2254 -0.4399
   18TAL    C86 4319   6.295  -1.424   1.691  0.0128  0.3620  0.2806
   18TAL    C87 4320   6.167  -1.496   1.641 -0.6411  0.4334 -0.0074
   18TAL    C88 4321   6.075  -1.538   1.754  0.3018 -0.8483 -0.5392
   18TAL    C89 4322   6.001  -1.671   1.735 -0.4114  0.0518 -0.6189
   18TAL    C90 4323   5.913  -1.700   1.859 -0.8317  0.3724  0.1525
   19HTM    C91 4324   6.349  -1.403   1.256 -0.3231 -0.4706  0.2243
   19HTM    C92 4325   6.295  -1.443   1.138 -0.2778 -0.5393  0.2267
   19HTM    C93 4326   6.372  -1.543   1.070 -0.0718 -0.3228  0.1437
   19HTM    C94 4327   6.486  -1.579   1.135  0.0400 -0.0894  0.0778
   19HTM    S10 4328   6.504  -1.489   1.290 -0.1073 -0.1250  0.1160
   20TAL    C95 4329   6.334  -1.585   0.928  0.0518 -0.0371  0.4203
   20TAL    C96 4330   6.268  -1.723   0.896 -0.5267  0.2335  0.0711
   20TAL    C97 4331   6.140  -1.753   0.962 -0.2165  0.1818 -0.2341
   20TAL    C98 4332   6.102  -1.900   0.934  0.3492 -0.4220  0.2227
   20TAL    C99 4333   5.968  -1.936   1.002 -0.0941  0.5283  0.8830
   20TAL   C100 4334   5.919  -2.066   0.935 -0.3055 -0.6370 -0.6145
   21HTM   C101 4335   6.578  -1.683   1.110  0.3410  0.0805 -0.2846
   21HTM   C102 4336   6.547  -1.815   1.098  0.4191  0.0975 -0.6897
   21HTM   C103 4337   6.659  -1.903   1.116  0.4060  0.0944 -0.6232
   21HTM   C104 4338   6.776  -1.839   1.142  0.3185  0.0752 -0.1673
   21HTM    S11 4339   6.754  -1.660   1.146  0.2446  0.0590  0.2163
   22TAL   C105 4340   6.650  -2.054   1.085 -0.6173 -0.6990  0.0761
   22TAL   C106 4341   6.547  -2.151   1.140  0.2508 -0.5639  0.5818
   22TAL   C107 4342   6.406  -2.104   1.118  0.6801 -0.0088  0.7036
   22TAL   C108 4343   6.320  -2.206   1.193  0.3305 -0.2648 -0.3833
   22TAL   C109 4344   6.179  -2.152   1.195  0.5028  0.1912 -0.8053
   22TAL   C110 4345   6.117  -2.217   1.320 -0.1545  0.1402  0.2231
   23HTM   C111 4346   6.910  -1.894   1.160 -0.0484 -0.2606  0.3589
   23HTM   C112 4347   6.951  -2.014   1.210  0.2265 -0.1616  0.3760
   23HTM   C113 4348   7.093  -2.025   1.227  0.2620  0.1225  0.2646
   23HTM   C114 4349   7.162  -1.913   1.190  0.0147  0.2407  0.1625
   23HTM    S12 4350   7.051  -1.785   1.130 -0.2851 -0.0003  0.1995
   24TAL   C115 4351   7.158  -2.152   1.287  1.0644 -0.0735 -0.5265
   24TAL   C116 4352   7.153  -2.185   1.434 -0.4340  0.2595 -0.1901
   24TAL   C117 4353   7.238  -2.292   1.499 -0.4902 -0.1407 -0.6517
   24TAL   C118 4354   7.390  -2.254   1.490 -0.0066 -0.3551 -0.7669
   24TAL   C119 4355   7.487  -2.344   1.576 -0.1439 -0.2883  0.0491
   24TAL   C120 4356   7.545  -2.443   1.480  0.7787  0.0807  0.1917
   25HTM   C121 4357   7.304  -1.874   1.199 -0.1504  0.1050 -0.0870
   25HTM   C122 4358   7.354  -1.748   1.213 -0.3009  0.1161  0.3492
   25HTM   C123 4359   7.494  -1.744   1.247 -0.3433  0.1626  0.5181
   25HTM   C124 4360   7.551  -1.867   1.259 -0.2253  0.1870  0.2108
   25HTM    S13 4361   7.431  -1.999   1.227 -0.0500  0.1528 -0.3199
   26TAL   C125 4362   7.561  -1.607   1.267 -0.0454  0.1659 -0.4456
   26TAL   C126 4363   7.577  -1.526   1.137  0.1366 -1.0089 -0.3473
   26TAL   C127 4364   7.681  -1.414   1.126  0.3110 -0.1366  0.5450
   26TAL   C128 4365   7.657  -1.296   1.224  0.2291  0.2257 -0.2545
   26TAL   C129 4366   7.744  -1.177   1.186 -0.0776  0.5721  0.0373
   26TAL   C130 4367   7.703  -1.055   1.261 -0.4300  0.1130  0.8919
   27HTM   C131 4368   7.681  -1.914   1.303  0.0113  0.0075  0.0485
   27HTM   C132 4369   7.711  -2.035   1.357 -0.1287  0.2649  0.7212
   27HTM   C133 4370   7.852  -2.055   1.381 -0.2038  0.4220  1.2863
   27HTM   C134 4371   7.929  -1.948   1.347 -0.1214  0.2838  1.0446
   27HTM    S14 4372   7.829  -1.813   1.279  0.0593 -0.0572  0.0769
   28TAL   C135 4373   7.895  -2.186   1.438 -0.2283  0.4198  0.0183
   28TAL   C136 4374   7.850  -2.202   1.589  0.2984  0.2902 -0.7927
   28TAL   C137 4375   7.902  -2.103   1.696 -0.1349 -0.0317 -0.3582
   28TAL   C138 4376   8.052  -2.096   1.714 -0.4841 -0.3673 -0.3803
   28TAL   C139 4377   8.104  -1.961   1.766 -0.1316  0.1550  0.1415
   28TAL   C140 4378   8.070  -1.844   1.678 -0.0520  0.3913 -0.0577
   29HTM   C141 4379   8.076  -1.941   1.329  0.0168 -0.1115  0.5099
   29HTM   C142 4380   8.148  -1.826   1.316  0.0877 -0.0947  1.0409
   29HTM   C143 4381   8.289  -1.848   1.299  0.0796 -0.0985  0.9779
   29HTM   C144 4382   8.325  -1.979   1.298  0.0031 -0.1185  0.3989
   29HTM    S15 4383   8.182  -2.087   1.319 -0.0654 -0.1338 -0.1157
   30TAL   C145 4384   8.382  -1.727   1.253 -0.1893  0.0895  0.3899
   30TAL   C146 4385   8.328  -1.582   1.240 -0.4407 -0.1005  0.1949
   30TAL   C147 4386   8.445  -1.477   1.209  0.1353  0.2858 -0.4909
   30TAL   C148 4387   8.561  -1.466   1.309 -0.1567 -0.4621 -0.6466
   30TAL   C149 4388   8.531  -1.461   1.459  0.6997 -0.6423 -0.3171
   30TAL   C150 4389   8.460  -1.336   1.507 -0.4723  0.2177 -0.8017
   31HTM   C151 4390   8.456  -2.043   1.281 -0.3399  0.2398  0.2230
   31HTM   C152 4391   8.481  -2.177   1.285 -0.3743  0.2339  0.2414
   31HTM   C153 4392   8.620  -2.211   1.267 -0.4244  0.1822 -0.0521
   31HTM   C154 4393   8.701  -2.102   1.250 -0.4285  0.1485 -0.2943
   31HTM    S16 4394   8.608  -1.948   1.256 -0.3689  0.1799 -0.1695
   32TAL   C155 4395   8.667  -2.355   1.280  1.2583  0.5425 -0.3423
   32TAL   C156 4396   8.740  -2.415   1.156  0.2265  0.5547 -0.0663
   32TAL   C157 4397   8.817  -2.542   1.184 -0.0816 -0.1555 -0.2725
   32TAL   C158 4398   8.943  -2.529   1.267 -0.2353  0.0537 -0.3053
   32TAL   C159 4399   9.008  -2.659   1.278  0.1940 -0.3544 -0.4130
   32TAL   C160 4400   9.154  -2.657   1.245  0.1176 -0.2385  0.0151
   33HTM   C161 4401   8.844  -2.084   1.215  0.1937 -0.0028  0.1716
   33HTM   C162 4402   8.945  -2.156   1.271  0.3910 -0.0088 -0.1898
   33HTM   C163 4403   9.076  -2.109   1.236  0.2661  0.1857 -0.3985
   33HTM   C164 4404   9.075  -2.001   1.153 -0.0261  0.3397 -0.1962
   33HTM    S17 4405   8.907  -1.950   1.113 -0.1682  0.2506  0.2772
   34TAL   C165 4406   9.201  -2.179   1.286  0.2958 -0.2740  0.0954
   34TAL   C166 4407   9.197  -2.316   1.361  0.2382  0.4644 -0.4947
   34TAL   C167 4408   9.329  -2.371   1.408  0.1837  0.9808  0.2115
   34TAL   C168 4409   9.449  -2.370   1.306  0.3436 -0.2229 -0.2808
   34TAL   C169 4410   9.541  -2.475   1.352  0.2265  0.3915 -0.1565
   34TAL   C170 4411   9.658  -2.512   1.265  0.6832 -0.6524  0.0450
   35HTM   C171 4412   9.183  -1.926   1.095  0.5182  0.0201  0.1714
   35HTM   C172 4413   9.214  -1.912   0.963  0.7702 -0.2024  0.2044
   35HTM   C173 4414   9.329  -1.830   0.939  0.7210 -0.1113  0.2787
   35HTM   C174 4415   9.387  -1.781   1.052  0.4315  0.1806  0.3025
   35HTM    S18 4416   9.299  -1.836   1.200  0.1968  0.3647  0.2322
   36TAL   C175 4417   9.392  -1.816   0.802  0.3889 -0.1339  0.6428
   36TAL   C176 4418   9.326  -1.885   0.682  0.5281 -0.2061 -0.2745
   36TAL   C177 4419   9.361  -2.034   0.681 -0.4188 -0.4694 -0.3839
   36TAL   C178 4420   9.292  -2.116   0.574  0.0638  0.2994 -0.1453
   36TAL   C179 4421   9.138  -2.097   0.567 -0.5832  0.4733 -0.2037
   36TAL   C180 4422   9.078  -2.159   0.445 -0.2710 -0.7008  0.1658
   37HTM   C181 4423   9.490  -1.684   1.083 -0.2501 -0.0281  0.1856
   37HTM   C182 4424   9.585  -1.628   1.004 -0.0353 -0.4756  0.1266
   37HTM   C183 4425   9.671  -1.535   1.073  0.1140 -0.4861 -0.0443
   37HTM   C184 4426   9.641  -1.520   1.205  0.0131 -0.0471 -0.1158
   37HTM    S19 4427   9.501  -1.623   1.253 -0.2806  0.4180  0.0287
   38TAL   C185 4428   9.772  -1.452   0.986 -0.1520  0.4907  0.4323
   38TAL   C186 4429   9.905  -1.521   0.951 -0.1527 -0.0608 -0.2894
   38TAL   C187 4430   9.997  -1.438   0.861 -0.1140 -0.1992  0.1135
   38TAL   C188 4431  10.137  -1.504   0.830  0.5896 -0.1068  0.4313
   38TAL   C189 4432  10.191  -1.449   0.703  0.2871  0.4341 -0.2413
   38TAL   C190 4433  10.321  -1.511   0.661 -0.3010 -0.0745  0.5654
   39HTM   C191 4434   9.695  -1.432   1.308 -0.5177  0.5787 -0.1997
   39HTM   C192 4435   9.666  -1.444   1.441 -0.4783  0.3688 -0.2102
   39HTM   C193 4436   9.739  -1.353   1.525 -0.1553 -0.0358 -0.0454
   39HTM   C194 4437   9.823  -1.271   1.456  0.0515 -0.1341  0.0909
   39HTM    S20 4438   9.818  -1.303   1.279 -0.1472  0.2797  0.0208
   40TAL   C195 4439   9.713  -1.362   1.677 -1.1368  0.2528 -0.1134
   40TAL   C196 4440   9.576  -1.317   1.732  0.5805  0.5424  0.1526
   40TAL   C197 4441   9.530  -1.182   1.678 -0.3105 -0.0613 -0.1785
   40TAL   C198 4442   9.566  -1.059   1.767 -0.6959 -0.5103 -0.8733
   40TAL   C199 4443   9.510  -0.938   1.697  0.7505 -0.1673 -0.3030
   40TAL   C200 4444   9.537  -0.812   1.772  0.0098  0.0757 -0.0740
   41HTM   C201 4445   9.896  -1.158   1.514 -0.2256  0.3267  0.4184
   41HTM   C202 4446   9.902  -1.026   1.478 -0.1250  0.3803  0.6349
   41HTM   C203 4447   9.999  -0.951   1.554  0.0836  0.1359  0.6157
   41HTM   C204 4448  10.066  -1.024   1.647  0.1422 -0.1036  0.3845
   41HTM    S21 4449  10.012  -1.197   1.646 -0.0633 -0.0392  0.1716
   42TAL   C205 4450   9.998  -0.798   1.542 -0.7421  0.3980 -0.4452
   42TAL   C206 4451  10.138  -0.748   1.508  0.3384  0.2666  0.2483
   42TAL   C207 4452  10.148  -0.612   1.433  0.8352  0.8968  0.4354
   42TAL   C208 4453  10.067  -0.493   1.482 -0.3961 -0.3202 -0.2153
   42TAL   C209 4454  10.070  -0.380   1.379 -0.4392 -0.7292 -0.1629
   42TAL   C210 4455   9.992  -0.251   1.417 -0.4241  0.7123  0.8926
   43HTM   C211 4456  10.170  -1.004   1.737 -0.0500  0.0011 -0.0293
   43HTM   C212 4457  10.174  -0.917   1.842 -0.1249 -0.1197  0.0735
   43HTM   C213 4458  10.296  -0.925   1.919 -0.0599 -0.0081 -0.0181
   43HTM   C214 4459  10.385  -1.018   1.872  0.0647  0.1966 -0.1908
   43HTM    S22 4460  10.320  -1.103   1.726  0.1099  0.2661 -0.2514
   44TAL   C215 4461  10.306  -0.858   2.058  0.2663  0.6136  0.4677
   44TAL   C216 4462  10.241  -0.921   2.178 -0.1817  0.1263 -0.8726
   44TAL   C217 4463  10.098  -0.967   2.181  0.7457  0.0403  0.3732
   44TAL   C218 4464   9.989  -0.869   2.149 -0.3032 -0.0039  0.0261
   44TAL   C219 4465   9.850  -0.923   2.142 -0.3093  0.5739  0.4998
   44TAL   C220 4466   9.824  -0.969   1.997  0.6145  0.1427  0.3634
   45HTM   C221 4467  10.512  -1.076   1.917 -0.0133  0.0942 -0.2157
   45HTM   C222 4468  10.520  -1.208   1.952 -0.1038 -0.0420 -0.7004
   45HTM   C223 4469  10.651  -1.249   1.992 -0.1390 -0.2747 -0.8234
   45HTM   C224 4470  10.744  -1.150   1.988 -0.0753 -0.3156 -0.4326
   45HTM    S23 4471  10.672  -0.994   1.932  0.0349 -0.0618  0.1255
   46TAL   C225 4472  10.683  -1.385   2.065 -0.1241  0.0228  0.1643
   46TAL   C226 4473  10.584  -1.500   2.058  0.5397  0.3540 -0.2787
   46TAL   C227 4474  10.631  -1.625   2.128 -0.5183 -0.8030 -0.6359
   46TAL   C228 4475  10.514  -1.711   2.153  0.7851  0.2567  0.4384
   46TAL   C229 4476  10.538  -1.843   2.227  0.2208 -0.2222 -0.1362
   46TAL   C230 4477  10.406  -1.926   2.219 -0.4311  0.3482 -0.4371
   47HTM   C231 4478  10.886  -1.152   2.033  0.0466 -0.1632  0.1766
   47HTM   C232 4479  10.958  -1.042   2.070 -0.0998 -0.1836  0.5225
   47HTM   C233 4480  11.092  -1.072   2.112 -0.1875 -0.1798  0.8078
   47HTM   C234 4481  11.123  -1.204   2.107 -0.1081 -0.1567  0.6792
   47HTM    S24 4482  10.983  -1.303   2.048  0.0853 -0.1380  0.1844
   48TAL   C235 4483  11.185  -0.959   2.161 -0.5369 -0.4659  0.5657
   48TAL   C236 4484  11.142  -0.812   2.117 -0.5202  0.5194  0.4521
   48TAL   C237 4485  11.185  -0.689   2.195  0.3083 -0.3680  0.8867
   48TAL   C238 4486  11.331  -0.670   2.232 -0.1256 -0.3494 -0.4370
   48TAL   C239 4487  11.386  -0.761   2.343  0.0753  0.0570  0.3462
   48TAL   C240 4488  11.519  -0.703   2.389  0.4771  0.0791  0.2396
    1HTM     C1 4489   3.934   1.721   3.292  0.3490 -0.0359  0.4850
    1HTM     C2 4490   3.806   1.715   3.246  0.2456  0.0468  0.7579
    1HTM     C3 4491   3.779   1.600   3.163  0.0266  0.1242  0.7199
    1HTM     C4 4492   3.887   1.518   3.147 -0.0368  0.1005  0.4181
    1HTM     S1 4493   4.032   1.581   3.235  0.1764 -0.0223  0.1564
    2TAL     C5 4494   3.644   1.587   3.100  0.4379  0.0331 -0.4587
    2TAL     C6 4495   3.521   1.628   3.191 -0.6506  0.2372  0.6860
    2TAL     C7 4496   3.383   1.634   3.127  0.4350  0.3925  0.4770
    2TAL     C8 4497   3.284   1.722   3.209  0.4802 -0.2076  0.0342
    2TAL     C9 4498   3.138   1.690   3.178  0.1869 -0.2753 -0.2383
    2TAL    C10 4499   3.036   1.789   3.233  0.7455 -0.1064 -0.6766
    3HTM    C11 4500   3.891   1.383   3.091  0.6134  0.5219 -0.1517
    3HTM    C12 4501   3.848   1.336   2.970  1.0544  0.4518 -0.2801
    3HTM    C13 4502   3.878   1.196   2.950  0.8632  0.3635  0.0342
    3HTM    C14 4503   3.942   1.138   3.054  0.2763  0.3661  0.4026
    3HTM     S2 4504   3.971   1.255   3.188 -0.0830  0.4814  0.3809
    4TAL    C15 4505   3.843   1.121   2.821 -0.8577  0.8828  0.1522
    4TAL    C16 4506   3.742   1.171   2.716  0.2961  0.0227 -0.0430
    4TAL    C17 4507   3.739   1.078   2.596  1.1912  0.1710 -0.1247
    4TAL    C18 4508   3.617   1.102   2.501 -0.5320 -0.7201 -0.5140
    4TAL    C19 4509   3.610   1.005   2.381  0.5609 -0.0143  0.0735
    4TAL    C20 4510   3.505   1.058   2.290  0.5108  0.8286  0.5874
    5HTM    C21 4511   3.997   1.005   3.068  0.2096  0.1456  0.1639
    5HTM    C22 4512   3.944   0.881   3.050  0.0372  0.1600  0.5851
    5HTM    C23 4513   4.041   0.775   3.054 -0.0665  0.0658  0.6186
    5HTM    C24 4514   4.169   0.818   3.075  0.0263 -0.0204  0.2227
    5HTM     S3 4515   4.176   0.998   3.090  0.2544  0.0108 -0.2265
    6TAL    C25 4516   4.009   0.633   3.025 -0.1418 -0.0813  0.2422
    6TAL    C26 4517   3.934   0.565   3.136 -0.2113  0.3455  0.1467
    6TAL    C27 4518   3.929   0.412   3.143 -0.4327  0.8694  0.3428
    6TAL    C28 4519   4.065   0.341   3.139  0.1439  0.3065 -0.3800
    6TAL    C29 4520   4.060   0.187   3.144 -0.1444  0.5435 -0.3264
    6TAL    C30 4521   4.197   0.122   3.132  0.3203 -0.5070  0.3654
    7HTM    C31 4522   4.293   0.747   3.071  0.1347 -0.0153  0.4299
    7HTM    C32 4523   4.328   0.628   3.128  0.2964  0.0813  0.5338
    7HTM    C33 4524   4.470   0.607   3.135  0.3188  0.1198  0.2187
    7HTM    C34 4525   4.544   0.710   3.084  0.1739  0.0527 -0.1255
    7HTM     S4 4526   4.438   0.842   3.022 -0.0031 -0.0654 -0.0780
    8TAL    C35 4527   4.524   0.481   3.192  0.0163  0.2772 -0.2576
    8TAL    C36 4528   4.572   0.511   3.334 -0.0905  0.4432 -0.1608
    8TAL    C37 4529   4.646   0.388   3.387  0.1006  0.3811  0.2113
    8TAL    C38 4530   4.700   0.390   3.528  0.2580  0.6100  0.0031
    8TAL    C39 4531   4.802   0.287   3.557 -0.1738  0.0744  0.4798
    8TAL    C40 4532   4.843   0.269   3.702 -0.5990  0.3159 -0.0484
    9HTM    C41 4533   4.684   0.743   3.077 -0.0808  0.0314 -0.0251
    9HTM    C42 4534   4.788   0.655   3.079 -0.0219  0.1107  0.4518
    9HTM    C43 4535   4.917   0.719   3.073 -0.0477  0.1939  0.7467
    9HTM    C44 4536   4.911   0.855   3.066 -0.1265  0.1780  0.4947
    9HTM     S5 4537   4.741   0.914   3.067 -0.1744  0.0559 -0.1398
   10TAL    C45 4538   5.040   0.636   3.063 -0.2385  0.1718 -0.4960
   10TAL    C46 4539   5.108   0.620   3.196  0.2982 -0.1853 -0.2893
   10TAL    C47 4540   5.238   0.548   3.189 -0.0259 -0.1695 -0.2552
   10TAL    C48 4541   5.351   0.602   3.092  0.0242  0.1780  0.0221
   10TAL    C49 4542   5.457   0.501   3.090  0.4861 -0.1488 -0.2839
   10TAL    C50 4543   5.581   0.546   3.020 -0.0517  0.0272  0.1406
   11HTM    C51 4544   5.014   0.956   3.042  0.2316 -0.0163  0.4104
   11HTM    C52 4545   5.148   0.942   3.019  0.1893 -0.0006  0.1445
   11HTM    C53 4546   5.214   1.065   2.987  0.0932 -0.0086 -0.0895
   11HTM    C54 4547   5.132   1.173   2.985  0.0625 -0.0305 -0.0023
   11HTM     S6 4548   4.962   1.128   3.024  0.1529 -0.0428  0.3855
   12TAL    C55 4549   5.363   1.070   2.949 -0.1166 -0.0476 -0.5932
   12TAL    C56 4550   5.445   0.940   2.971  0.4746  0.0907  0.0312
   12TAL    C57 4551   5.594   0.945   2.915  0.0839  0.3426  0.1663
   12TAL    C58 4552   5.690   0.858   2.986  0.1292  0.9073 -0.2177
   12TAL    C59 4553   5.838   0.879   2.951  0.3696  0.4340 -0.2917
   12TAL    C60 4554   5.944   0.803   3.036 -0.4766 -0.7367  0.0564
   13HTM    C61 4555   5.147   1.318   2.952  0.0915  0.1246  0.2128
   13HTM    C62 4556   5.259   1.396   2.957 -0.0224  0.2660  0.5616
   13HTM    C63 4557   5.236   1.533   2.917 -0.0439  0.2055  0.3659
   13HTM    C64 4558   5.107   1.558   2.882  0.0535  0.0178 -0.1325
   13HTM     S7 4559   5.004   1.411   2.896  0.1808 -0.0978 -0.3948
   14TAL    C65 4560   5.346   1.633   2.904 -0.0176 -0.0186 -0.1776
   14TAL    C66 4561   5.492   1.586   2.892 -0.3906  0.3086  0.0945
   14TAL    C67 4562   5.584   1.702   2.861 -0.1500 -0.4815 -0.3469
   14TAL    C68 4563   5.727   1.653   2.828  0.3643 -0.1270  0.2598
   14TAL    C69 4564   5.816   1.769   2.798 -0.1657  0.4267  0.3938
   14TAL    C70 4565   5.951   1.727   2.746 -0.0984  0.5002  0.1071
   15HTM    C71 4566   5.041   1.679   2.842 -0.5513 -0.0985 -0.1575
   15HTM    C72 4567   4.955   1.692   2.736 -1.0111  0.0934  0.2356
   15HTM    C73 4568   4.915   1.828   2.710 -0.7386  0.1965  0.3514
   15HTM    C74 4569   4.970   1.919   2.795 -0.0709  0.0833  0.0467
   15HTM     S8 4570   5.078   1.839   2.916  0.2683 -0.1643 -0.4137
   16TAL    C75 4571   4.823   1.866   2.595  0.5592  0.2568  0.3985
   16TAL    C76 4572   4.793   1.750   2.496  0.1022 -0.2652 -0.2430
   16TAL    C77 4573   4.689   1.788   2.391 -0.0715  0.5012  0.8149
   16TAL    C78 4574   4.645   1.673   2.294  0.3792  0.1741 -0.0967
   16TAL    C79 4575   4.527   1.731   2.220  0.6810 -0.0941  0.0474
   16TAL    C80 4576   4.460   1.628   2.135  0.6565  0.0148 -0.3062
   17HTM    C81 4577   4.948   2.065   2.810 -0.2569  0.0681 -0.1163
   17HTM    C82 4578   5.037   2.153   2.864 -0.4449 -0.1359  0.5393
   17HTM    C83 4579   4.988   2.289   2.870 -0.5894 -0.2115  1.1952
   17HTM    C84 4580   4.862   2.304   2.820 -0.5113 -0.0648  1.0394
   17HTM     S9 4581   4.794   2.147   2.762 -0.2471  0.1818  0.0447
   18TAL    C85 4582   5.067   2.407   2.923 -0.4567 -0.6942  0.5648
   18TAL    C86 4583   5.222   2.415   2.903  1.4196  0.3299 -0.0372
   18TAL    C87 4584   5.283   2.550   2.934 -0.1419 -0.1299  0.7812
   18TAL    C88 4585   5.239   2.659   2.836 -0.2257  0.3384  0.2717
   18TAL    C89 4586   5.306   2.793   2.852 -0.7068 -0.1592  0.2349
   18TAL    C90 4587   5.248   2.888   2.746  0.8279 -0.0865 -0.2761
   19HTM    C91 4588   4.777   2.421   2.811  0.1691  0.1426 -0.0430
   19HTM    C92 4589   4.642   2.429   2.829  0.0429 -0.1459 -0.7926
   19HTM    C93 4590   4.589   2.561   2.809 -0.1783 -0.3254 -1.3958
   19HTM    C94 4591   4.683   2.654   2.775 -0.2210 -0.1739 -1.1062
   19HTM    S10 4592   4.848   2.580   2.765  0.0175  0.2103 -0.0408
   20TAL    C95 4593   4.444   2.589   2.826  0.4987  0.3847  0.1244
   20TAL    C96 4594   4.350   2.496   2.752 -0.0749 -0.3165  0.0830
   20TAL    C97 4595   4.211   2.554   2.762  0.0636 -0.0466 -0.5478
   20TAL    C98 4596   4.105   2.466   2.699 -0.1724  0.6344 -0.0795
   20TAL    C99 4597   3.970   2.530   2.701 -0.6741  0.1040 -0.7460
   20TAL   C100 4598   3.856   2.440   2.652  0.1108  0.5986 -0.4928
   21HTM   C101 4599   4.671   2.794   2.752  0.2755 -0.3023  0.5101
   21HTM   C102 4600   4.760   2.859   2.672  0.6080 -0.3306  0.8576
   21HTM   C103 4601   4.733   2.999   2.656  0.7741 -0.3005  0.8359
   21HTM   C104 4602   4.622   3.042   2.724  0.5683 -0.2493  0.4719
   21HTM    S11 4603   4.544   2.906   2.814  0.1452 -0.2351  0.1256
   22TAL   C105 4604   4.838   3.080   2.573 -0.1464 -0.3370  0.0250
   22TAL   C106 4605   4.789   3.118   2.425 -0.1453 -0.4617  0.1701
   22TAL   C107 4606   4.893   3.175   2.324  0.0517 -0.1191  0.0790
   22TAL   C108 4607   4.966   3.303   2.354  0.3916  0.3759 -0.5130
   22TAL   C109 4608   4.872   3.425   2.392  0.4636  0.0288  0.4024
   22TAL   C110 4609   4.942   3.559   2.418 -0.1243  0.2518  0.0191
   23HTM   C111 4610   4.558   3.173   2.740  0.2376  0.2636 -0.0544
   23HTM   C112 4611   4.464   3.199   2.835  0.1976  0.0728 -0.0409
   23HTM   C113 4612   4.430   3.338   2.846 -0.1514 -0.0075 -0.0994
   23HTM   C114 4613   4.498   3.418   2.759 -0.3782  0.1221 -0.1574
   23HTM    S12 4614   4.611   3.323   2.656 -0.1665  0.3575 -0.1426
   24TAL   C115 4615   4.328   3.381   2.954  0.2408 -0.4536 -0.0634
   24TAL   C116 4616   4.323   3.300   3.082 -0.2259  0.2486 -0.3462
   24TAL   C117 4617   4.206   3.305   3.182  0.4369 -0.7847  0.0332
   24TAL   C118 4618   4.061   3.307   3.126  0.4077  0.3827  0.2624
   24TAL   C119 4619   4.034   3.189   3.032  0.6665  0.3319 -0.2034
   24TAL   C120 4620   3.891   3.148   3.019  0.3634 -0.1345 -1.0898
   25HTM   C121 4621   4.486   3.566   2.743 -0.6604  0.0982  0.2753
   25HTM   C122 4622   4.491   3.655   2.846 -1.0898  0.2271  0.1832
   25HTM   C123 4623   4.472   3.792   2.805 -0.8502  0.1833 -0.0771
   25HTM   C124 4624   4.453   3.807   2.671 -0.2380  0.0210 -0.1834
   25HTM    S13 4625   4.458   3.648   2.585  0.0857 -0.0902  0.0385
   26TAL   C125 4626   4.463   3.907   2.902  0.6673 -0.4574  0.6897
   26TAL   C126 4627   4.317   3.966   2.901 -0.2405  0.1867 -0.7712
   26TAL   C127 4628   4.305   4.091   2.984  0.0653  0.0707  0.0642
   26TAL   C128 4629   4.167   4.147   3.011 -1.0779  0.1724  0.2470
   26TAL   C129 4630   4.088   4.191   2.886 -0.5773 -0.1072  0.0922
   26TAL   C130 4631   3.984   4.292   2.923  0.0800 -0.0248  0.1967
   27HTM   C131 4632   4.422   3.922   2.591  0.0802  0.0596 -0.4045
   27HTM   C132 4633   4.316   3.941   2.507  0.2124  0.1855 -0.5414
   27HTM   C133 4634   4.307   4.076   2.457  0.3211  0.2491 -0.3940
   27HTM   C134 4635   4.405   4.159   2.502  0.2719  0.1717 -0.1445
   27HTM    S14 4636   4.518   4.073   2.613  0.0829  0.0110 -0.0756
   28TAL   C135 4637   4.190   4.114   2.374  0.1210  0.2383  0.7610
   28TAL   C136 4638   4.049   4.129   2.429 -0.0002 -0.5843 -0.0727
   28TAL   C137 4639   3.992   4.010   2.500  0.3605 -0.0737  0.4458
   28TAL   C138 4640   3.848   4.017   2.550 -0.1213  0.3351 -0.4248
   28TAL   C139 4641   3.807   4.145   2.624  0.2815  0.0662  0.2216
   28TAL   C140 4642   3.658   4.150   2.654  0.0120 -0.3662 -0.0789
   29HTM   C141 4643   4.434   4.302   2.470 -0.3402  0.2803 -0.0154
   29HTM   C142 4644   4.360   4.399   2.408 -0.3560  0.2773 -0.0018
   29HTM   C143 4645   4.432   4.522   2.388 -0.3104  0.2224 -0.1712
   29HTM   C144 4646   4.560   4.519   2.433 -0.2602  0.1834 -0.3142
   29HTM    S15 4647   4.601   4.360   2.507 -0.2664  0.2136 -0.2454
   30TAL   C145 4648   4.359   4.633   2.321 -0.2774  0.3221  0.1788
   30TAL   C146 4649   4.312   4.620   2.178 -0.1836  0.0794 -0.4051
   30TAL   C147 4650   4.256   4.740   2.119  0.0725 -0.1599  0.1299
   30TAL   C148 4651   4.146   4.815   2.190  0.2584  0.1069 -0.3865
   30TAL   C149 4652   4.113   4.946   2.119  0.4315 -0.7166 -0.3961
   30TAL   C150 4653   4.009   5.017   2.191  0.0298  0.3162 -0.5535
   31HTM   C151 4654   4.671   4.612   2.397 -0.0478  0.2230 -0.2214
   31HTM   C152 4655   4.673   4.747   2.377 -0.1509  0.1993 -0.3999
   31HTM   C153 4656   4.799   4.796   2.330 -0.1440  0.2520 -0.3264
   31HTM   C154 4657   4.894   4.699   2.313 -0.0356  0.3162 -0.0918
   31HTM    S16 4658   4.829   4.536   2.356  0.0669  0.3151  0.0557
   32TAL   C155 4659   4.829   4.940   2.311  0.2005  0.4323  0.0347
   32TAL   C156 4660   4.740   5.021   2.220 -0.6323 -0.2143  0.1260
   32TAL   C157 4661   4.769   5.007   2.072 -0.2612  0.1859 -0.1669
   32TAL   C158 4662   4.688   5.098   1.978  0.0320 -0.3615 -0.2165
   32TAL   C159 4663   4.706   5.061   1.831  0.7058 -0.8920  0.1045
   32TAL   C160 4664   4.666   5.179   1.738  0.5462  0.0267  0.2346
   33HTM   C161 4665   5.030   4.705   2.255 -0.4133  0.6006  0.3825
   33HTM   C162 4666   5.098   4.588   2.240 -0.5836  0.3853  1.2125
   33HTM   C163 4667   5.232   4.605   2.188 -0.4387 -0.1528  1.3999
   33HTM   C164 4668   5.265   4.735   2.164 -0.1579 -0.3477  0.7129
   33HTM    S17 4669   5.129   4.847   2.205 -0.0538  0.1373 -0.2316
   34TAL   C165 4670   5.318   4.488   2.158 -0.2646 -0.6042  0.7835
   34TAL   C166 4671   5.358   4.386   2.271 -0.2260  0.3702  0.3344
   34TAL   C167 4672   5.450   4.285   2.218  0.2676  0.1705 -0.1202
   34TAL   C168 4673   5.504   4.192   2.318  0.5278 -0.5714  0.4656
   34TAL   C169 4674   5.611   4.101   2.260  0.4642 -0.1799 -0.1594
   34TAL   C170 4675   5.588   3.969   2.180  0.3027 -0.0474  0.2570
   35HTM   C171 4676   5.375   4.791   2.082 -0.4411  0.3173 -0.6464
   35HTM   C172 4677   5.454   4.731   1.990 -0.3197  0.6261 -0.7447
   35HTM   C173 4678   5.551   4.819   1.929  0.0401  0.7343 -0.0217
   35HTM   C174 4679   5.544   4.947   1.976  0.1926  0.5080  0.6278
   35HTM    S18 4680   5.416   4.966   2.101 -0.1087  0.1381  0.3749
   36TAL   C175 4681   5.648   4.757   1.826 -0.3401 -0.2983  0.3093
   36TAL   C176 4682   5.593   4.717   1.690  0.2619  0.0847 -0.2956
   36TAL   C177 4683   5.512   4.806   1.602  0.0296  0.2573 -0.3049
   36TAL   C178 4684   5.537   4.956   1.581 -0.3313  0.8996  0.7624
   36TAL   C179 4685   5.669   5.017   1.530 -0.4373 -0.0247 -0.1206
   36TAL   C180 4686   5.719   4.976   1.402 -0.0092  0.2551 -0.0471
   37HTM   C181 4687   5.638   5.059   1.945  0.2864 -0.3258 -0.3636
   37HTM   C182 4688   5.609   5.192   1.954  0.2263 -0.3378 -0.3697
   37HTM   C183 4689   5.713   5.277   1.902  0.2825 -0.2868 -0.1747
   37HTM   C184 4690   5.820   5.209   1.853  0.3860 -0.2356 -0.0200
   37HTM    S19 4691   5.799   5.031   1.869  0.4199 -0.2480 -0.1093
   38TAL   C185 4692   5.695   5.430   1.908  0.3032  0.0231 -0.2200
   38TAL   C186 4693   5.811   5.509   1.973  0.4576  0.4672  0.9409
   38TAL   C187 4694   5.803   5.663   1.975 -0.3341 -0.8900  0.0803
   38TAL   C188 4695   5.924   5.735   2.032 -0.0483  0.5796  0.4673
   38TAL   C189 4696   5.903   5.886   2.054  0.2552  0.2533 -0.2898
   38TAL   C190 4697   6.019   5.958   2.124 -0.6021 -0.1632 -0.1669
   39HTM   C191 4698   5.935   5.256   1.777  0.0752 -0.5894  0.3249
   39HTM   C192 4699   5.961   5.224   1.647 -0.2515 -0.1650  0.1554
   39HTM   C193 4700   6.091   5.266   1.602 -0.5851  0.5033 -0.2124
   39HTM   C194 4701   6.165   5.329   1.698 -0.5129  0.5889 -0.3234
   39HTM    S20 4702   6.074   5.341   1.854 -0.0140 -0.1748  0.0308
   40TAL   C195 4703   6.144   5.226   1.462  0.2107  0.9293 -0.3604
   40TAL   C196 4704   6.049   5.235   1.346 -0.7023  0.4862  0.4384
   40TAL   C197 4705   6.115   5.238   1.213  0.6095  0.3754  0.7260
   40TAL   C198 4706   6.178   5.110   1.164 -0.5316 -0.2875 -0.2439
   40TAL   C199 4707   6.273   5.106   1.045 -0.1042 -0.2837  0.0925
   40TAL   C200 4708   6.283   4.969   0.972  0.0329  0.0381 -0.2847
   41HTM   C201 4709   6.296   5.398   1.685  0.5517 -0.3068  0.4457
   41HTM   C202 4710   6.416   5.359   1.736  0.7961 -0.1683 -0.0260
   41HTM   C203 4711   6.520   5.457   1.718  0.5641  0.0412 -0.2442
   41HTM   C204 4712   6.479   5.570   1.655  0.1425  0.0619  0.0611
   41HTM    S21 4713   6.304   5.562   1.611  0.0053 -0.1833  0.6524
   42TAL   C205 4714   6.662   5.427   1.769  0.0431  0.1612  0.1351
   42TAL   C206 4715   6.699   5.457   1.918  0.4099 -0.1458 -0.0509
   42TAL   C207 4716   6.715   5.615   1.958  0.0833 -0.4472 -0.4023
   42TAL   C208 4717   6.824   5.676   1.873  0.0268  0.3791 -0.4022
   42TAL   C209 4718   6.864   5.809   1.921  0.0797 -0.0040  0.4220
   42TAL   C210 4719   6.971   5.856   1.833  0.5675 -0.1803 -0.1176
   43HTM   C211 4720   6.549   5.687   1.613 -0.2773  0.0698 -0.8288
   43HTM   C212 4721   6.649   5.702   1.521 -0.1857  0.2887 -0.6932
   43HTM   C213 4722   6.714   5.831   1.527 -0.1192  0.2377 -0.2509
   43HTM   C214 4723   6.663   5.913   1.623 -0.1598 -0.0195 -0.0490
   43HTM    S22 4724   6.529   5.835   1.714 -0.2864 -0.2195 -0.4048
   44TAL   C215 4725   6.839   5.862   1.442  0.1679  0.2326 -0.7103
   44TAL   C216 4726   6.936   5.751   1.403  0.5674 -0.3310  0.9732
   44TAL   C217 4727   7.015   5.679   1.506  0.4275 -0.4407 -0.2954
   44TAL   C218 4728   6.956   5.551   1.557  0.2234  0.5285  0.4224
   44TAL   C219 4729   7.046   5.479   1.655 -0.2247  0.2882 -0.2644
   44TAL   C220 4730   6.993   5.339   1.691  0.4622  0.1406  0.4762
   45HTM   C221 4731   6.687   6.052   1.656 -0.0187  0.1097 -0.1123
   45HTM   C222 4732   6.804   6.123   1.658 -0.0088  0.1118 -0.5891
   45HTM   C223 4733   6.789   6.256   1.711  0.1931  0.1357 -0.5934
   45HTM   C224 4734   6.662   6.286   1.750  0.3381  0.1514 -0.1201
   45HTM    S23 4735   6.550   6.148   1.721  0.2293  0.1371  0.3720
   46TAL   C225 4736   6.909   6.354   1.717 -0.9241  0.4871 -0.1864
   46TAL   C226 4737   7.050   6.299   1.723  0.1760 -0.0822 -0.0814
   46TAL   C227 4738   7.164   6.405   1.743  0.3597  0.0053  0.2312
   46TAL   C228 4739   7.310   6.352   1.764  0.3426 -0.7237  0.2671
   46TAL   C229 4740   7.357   6.242   1.664 -0.0217 -0.5699 -0.4434
   46TAL   C230 4741   7.399   6.114   1.736  0.0715 -0.1174 -0.3404
   47HTM   C231 4742   6.598   6.399   1.809  0.0143  0.6905 -0.1720
   47HTM   C232 4743   6.646   6.526   1.826 -0.4830  0.8881 -0.2457
   47HTM   C233 4744   6.545   6.620   1.868 -0.8688  0.5338 -0.3685
   47HTM   C234 4745   6.421   6.565   1.883 -0.6658  0.0663 -0.3884
   47HTM    S24 4746   6.422   6.389   1.845  0.0339  0.0369 -0.2526
   48TAL   C235 4747   6.577   6.771   1.883 -0.0397 -0.0748 -0.0994
   48TAL   C236 4748   6.454   6.862   1.864 -0.5552  0.0867 -0.6228
   48TAL   C237 4749   6.484   7.012   1.868 -0.5840 -0.1047 -0.3886
   48TAL   C238 4750   6.366   7.109   1.878  0.1463 -0.2536 -0.3559
   48TAL   C239 4751   6.401   7.255   1.897 -0.4938 -0.4765 -0.1477
   48TAL   C240 4752   6.492   7.296   2.016 -0.1831 -0.3629 -0.2310
    1HTM     C1 4753   5.082   0.346   2.794  0.2556  0.2724 -0.0544
    1HTM     C2 4754   5.098   0.467   2.734  0.6106  0.4373  0.3662
    1HTM     C3 4755   5.231   0.489   2.683  0.7856  0.3896  0.7958
    1HTM     C4 4756   5.316   0.385   2.704  0.5636  0.1884  0.7024
    1HTM     S1 4757   5.235   0.249   2.791  0.1134  0.0424  0.0600
    2TAL     C5 4758   5.251   0.624   2.621 -0.5535  0.2487  0.2607
    2TAL     C6 4759   5.277   0.737   2.717  0.2964  0.4872  0.2044
    2TAL     C7 4760   5.257   0.875   2.651  0.4120  0.0633  0.8591
    2TAL     C8 4761   5.116   0.913   2.601  0.4792 -0.1450  0.0020
    2TAL     C9 4762   4.984   0.893   2.680  0.1744  0.6132 -0.3390
    2TAL    C10 4763   4.917   0.755   2.665  0.2770 -0.6162  0.0762
    3HTM    C11 4764   5.456   0.370   2.674 -0.1931 -0.1927 -0.3107
    3HTM    C12 4765   5.539   0.289   2.744 -0.3490 -0.3966 -0.3624
    3HTM    C13 4766   5.679   0.313   2.720 -0.2983 -0.4496 -0.1223
    3HTM    C14 4767   5.702   0.414   2.631 -0.1035 -0.2862  0.1127
    3HTM     S2 4768   5.548   0.486   2.570  0.0318 -0.0508  0.0483
    4TAL    C15 4769   5.781   0.218   2.773  0.7879 -0.1928 -0.5048
    4TAL    C16 4770   5.798   0.210   2.927 -0.4543  0.1799  0.8863
    4TAL    C17 4771   5.945   0.201   2.968 -0.3805 -0.4199 -0.0944
    4TAL    C18 4772   5.984   0.325   3.046  0.3022  0.6766 -0.5812
    4TAL    C19 4773   6.134   0.338   3.076  0.1683  0.0211 -0.1090
    4TAL    C20 4774   6.175   0.476   3.132 -0.3156 -0.0574  0.4289
    5HTM    C21 4775   5.829   0.470   2.590 -0.2792  0.3025 -0.0923
    5HTM    C22 4776   5.890   0.463   2.468 -0.5987  0.6722 -0.2733
    5HTM    C23 4777   6.023   0.518   2.467 -0.5083  0.4516 -0.3964
    5HTM    C24 4778   6.064   0.566   2.588 -0.1203 -0.0864 -0.3087
    5HTM     S3 4779   5.936   0.546   2.713  0.1635 -0.3582 -0.0623
    6TAL    C25 4780   6.112   0.510   2.342 -0.1989  0.1379  0.6273
    6TAL    C26 4781   6.188   0.378   2.328 -0.6230 -0.3668 -0.9615
    6TAL    C27 4782   6.319   0.404   2.254  0.1215  0.4471 -0.0159
    6TAL    C28 4783   6.426   0.295   2.280 -0.8727  0.6697 -0.1216
    6TAL    C29 4784   6.476   0.296   2.429  0.8756  0.5758 -0.1860
    6TAL    C30 4785   6.605   0.235   2.470  0.1623 -0.5443 -0.1691
    7HTM    C31 4786   6.192   0.619   2.629  0.1183 -0.0155 -0.2944
    7HTM    C32 4787   6.252   0.594   2.749 -0.0408  0.3122 -0.1441
    7HTM    C33 4788   6.390   0.634   2.755 -0.0894  0.4649 -0.0184
    7HTM    C34 4789   6.436   0.689   2.639  0.0328  0.2536 -0.0730
    7HTM     S4 4790   6.307   0.696   2.513  0.2201 -0.1577 -0.2889
    8TAL    C35 4791   6.463   0.619   2.883 -0.0779 -0.2400 -0.5484
    8TAL    C36 4792   6.494   0.478   2.929  0.3924 -0.7070 -0.2805
    8TAL    C37 4793   6.593   0.397   2.855  0.1383  0.2753  0.3725
    8TAL    C38 4794   6.738   0.447   2.848  0.1131  0.4201  0.8895
    8TAL    C39 4795   6.819   0.368   2.741 -0.2699 -0.0917  0.3662
    8TAL    C40 4796   6.956   0.422   2.709 -0.7906  0.2003  0.0117
    9HTM    C41 4797   6.571   0.723   2.603  0.1262 -0.2165  0.2403
    9HTM    C42 4798   6.643   0.834   2.635 -0.1216  0.0113  0.0176
    9HTM    C43 4799   6.770   0.842   2.566 -0.2556  0.2945 -0.2013
    9HTM    C44 4800   6.794   0.737   2.483 -0.1103  0.2826 -0.1458
    9HTM     S5 4801   6.657   0.619   2.483  0.2097 -0.0900  0.1901
   10TAL    C45 4802   6.867   0.957   2.595  0.4437 -0.2230  0.1189
   10TAL    C46 4803   6.936   0.952   2.731  0.0039 -0.1405  0.3879
   10TAL    C47 4804   7.043   0.849   2.739 -0.5012  0.5440  0.0787
   10TAL    C48 4805   7.126   0.859   2.864  0.4624 -0.1172  0.0698
   10TAL    C49 4806   7.220   0.742   2.891 -0.7990  0.6551  0.5053
   10TAL    C50 4807   7.272   0.766   3.026 -0.5210  0.3701  0.6817
   11HTM    C51 4808   6.911   0.709   2.400  0.2121 -0.1000  0.3233
   11HTM    C52 4809   6.979   0.591   2.394  0.1590 -0.1235  0.2019
   11HTM    C53 4810   7.106   0.601   2.325 -0.0236 -0.1969 -0.1453
   11HTM    C54 4811   7.134   0.726   2.279 -0.1097 -0.2292 -0.2886
   11HTM     S6 4812   7.002   0.842   2.320  0.0340 -0.1691  0.0063
   12TAL    C55 4813   7.200   0.481   2.326  0.0119  0.3486  0.3477
   12TAL    C56 4814   7.142   0.346   2.381 -0.0177 -0.0570  0.3375
   12TAL    C57 4815   7.234   0.231   2.390  0.0794 -0.7425  0.6184
   12TAL    C58 4816   7.288   0.171   2.260  0.4374 -0.1162  0.2115
   12TAL    C59 4817   7.374   0.041   2.274 -0.1332 -0.3077  0.3037
   12TAL    C60 4818   7.295  -0.082   2.298 -0.2509 -0.4759  0.6898
   13HTM    C61 4819   7.254   0.783   2.217  0.1105 -0.2261 -0.0390
   13HTM    C62 4820   7.256   0.911   2.168  0.3130 -0.1357  0.2050
   13HTM    C63 4821   7.384   0.950   2.114  0.4463 -0.1480  0.5080
   13HTM    C64 4822   7.479   0.853   2.121  0.3456 -0.2477  0.4953
   13HTM     S7 4823   7.414   0.703   2.197  0.0719 -0.3345  0.0963
   14TAL    C65 4824   7.385   1.089   2.049  0.2881 -0.3326  0.1682
   14TAL    C66 4825   7.431   1.190   2.161  0.1890  0.2479  0.1296
   14TAL    C67 4826   7.397   1.334   2.125  0.0077 -0.3218 -0.1017
   14TAL    C68 4827   7.443   1.448   2.217  0.3948 -0.2765 -0.7236
   14TAL    C69 4828   7.595   1.480   2.220 -0.1344 -0.2662  0.2675
   14TAL    C70 4829   7.652   1.548   2.093 -0.4351  0.0223  1.0068
   15HTM    C71 4830   7.619   0.852   2.074  0.0293 -0.4277 -0.3267
   15HTM    C72 4831   7.700   0.742   2.073  0.2499 -0.2667 -0.2218
   15HTM    C73 4832   7.831   0.767   2.020  0.3967  0.0861  0.2925
   15HTM    C74 4833   7.851   0.896   1.979  0.2885  0.1941  0.5798
   15HTM     S8 4834   7.704   0.996   2.005 -0.0098 -0.1440  0.2201
   16TAL    C75 4835   7.944   0.663   2.024 -0.1618  0.0711  0.2365
   16TAL    C76 4836   8.000   0.629   2.164 -0.1839  0.5871 -0.0766
   16TAL    C77 4837   7.930   0.524   2.255 -0.5859 -0.1026 -0.4500
   16TAL    C78 4838   7.902   0.378   2.202  0.3027  0.2899 -0.5362
   16TAL    C79 4839   7.788   0.362   2.106 -0.5345 -0.1285 -0.5526
   16TAL    C80 4840   7.644   0.406   2.144 -0.4032  0.6742  0.1277
   17HTM    C81 4841   7.965   0.956   1.912 -0.5370  0.8731  0.0475
   17HTM    C82 4842   7.965   1.012   1.787 -0.8392  1.5968  0.3703
   17HTM    C83 4843   8.085   1.085   1.756 -0.7133  1.3661  0.3170
   17HTM    C84 4844   8.177   1.084   1.856 -0.3161  0.4663 -0.0464
   17HTM     S9 4845   8.119   0.991   1.999 -0.0674 -0.1640 -0.3518
   18TAL    C85 4846   8.099   1.157   1.625 -0.2811 -0.1441 -0.2985
   18TAL    C86 4847   7.983   1.259   1.620 -1.0985  0.1346 -0.0778
   18TAL    C87 4848   7.972   1.381   1.711 -0.1231  0.1489 -0.1215
   18TAL    C88 4849   8.098   1.448   1.758  0.3637  0.5721  0.2333
   18TAL    C89 4850   8.187   1.508   1.650  0.8294 -0.5104  0.1816
   18TAL    C90 4851   8.320   1.578   1.688 -0.0326 -0.4605 -0.4167
   19HTM    C91 4852   8.312   1.144   1.869  0.1251  0.2401  0.1294
   19HTM    C92 4853   8.355   1.222   1.972  0.2208  0.3415  0.0129
   19HTM    C93 4854   8.481   1.287   1.947  0.2356  0.2549 -0.1364
   19HTM    C94 4855   8.534   1.258   1.825  0.1508  0.0875 -0.1338
   19HTM    S10 4856   8.428   1.146   1.731  0.0451  0.0258  0.0590
   20TAL    C95 4857   8.545   1.381   2.049 -0.3281 -0.2320  0.0974
   20TAL    C96 4858   8.562   1.313   2.186 -0.2091 -0.0366  0.6450
   20TAL    C97 4859   8.514   1.404   2.303 -0.0307  0.6717  0.4442
   20TAL    C98 4860   8.362   1.411   2.325 -0.6129 -0.5210 -0.0912
   20TAL    C99 4861   8.328   1.499   2.437  0.7166  0.5980 -0.4429
   20TAL   C100 4862   8.181   1.498   2.447 -0.0164 -0.3638 -0.7347
   21HTM   C101 4863   8.660   1.291   1.760  0.5300 -0.1585 -0.6046
   21HTM   C102 4864   8.693   1.243   1.637  0.9942  0.4073 -0.7083
   21HTM   C103 4865   8.824   1.281   1.593  1.1091  0.7296 -0.0985
   21HTM   C104 4866   8.892   1.358   1.683  0.7318  0.4096  0.4701
   21HTM    S11 4867   8.793   1.390   1.831  0.1989 -0.3294  0.2780
   22TAL   C105 4868   8.868   1.240   1.452  1.0073  0.2024 -0.0550
   22TAL   C106 4869   8.768   1.284   1.340  0.4700  0.0744 -0.0475
   22TAL   C107 4870   8.783   1.225   1.200 -0.0922  0.5761 -0.1368
   22TAL   C108 4871   8.662   1.254   1.116 -0.0530 -0.3538  0.0667
   22TAL   C109 4872   8.662   1.182   0.987  0.1739 -0.2536  0.1128
   22TAL   C110 4873   8.528   1.200   0.920 -0.4646  0.3174 -0.2382
   23HTM   C111 4874   9.031   1.400   1.666 -0.3521 -0.2104 -0.2415
   23HTM   C112 4875   9.087   1.524   1.667 -0.8376  0.0233 -0.8817
   23HTM   C113 4876   9.231   1.522   1.662 -0.8281  0.5582 -0.8200
   23HTM   C114 4877   9.285   1.397   1.657 -0.3353  0.7324 -0.1327
   23HTM    S12 4878   9.156   1.270   1.658  0.1589  0.2306  0.4947
   24TAL   C115 4879   9.303   1.658   1.650 -0.7140 -0.5737  0.2418
   24TAL   C116 4880   9.355   1.700   1.512 -0.1042 -0.5955  0.3179
   24TAL   C117 4881   9.411   1.842   1.523  0.0167 -0.4215  0.1812
   24TAL   C118 4882   9.325   1.960   1.477 -0.6690 -0.2948 -0.3108
   24TAL   C119 4883   9.266   1.944   1.335 -0.2878 -0.0327  0.5551
   24TAL   C120 4884   9.361   1.947   1.219 -0.4167 -0.4573  0.6449
   25HTM   C121 4885   9.422   1.351   1.651 -0.2513 -0.2640  0.1419
   25HTM   C122 4886   9.454   1.222   1.681 -0.0526 -0.3119 -0.2576
   25HTM   C123 4887   9.593   1.202   1.714  0.0047 -0.2238 -0.4479
   25HTM   C124 4888   9.667   1.316   1.708 -0.1502 -0.1089 -0.1935
   25HTM    S13 4889   9.567   1.459   1.661 -0.3824 -0.1028  0.3100
   26TAL   C125 4890   9.651   1.059   1.732 -0.6767  0.6603  0.4915
   26TAL   C126 4891   9.562   0.942   1.703 -0.2098  0.1865 -1.1662
   26TAL   C127 4892   9.624   0.811   1.751  0.7511  0.2855 -0.7701
   26TAL   C128 4893   9.552   0.687   1.707 -0.3908  0.0649  0.0645
   26TAL   C129 4894   9.644   0.559   1.710 -0.4951 -0.6158  0.3497
   26TAL   C130 4895   9.588   0.436   1.645  0.5054 -0.2973  0.1512
   27HTM   C131 4896   9.806   1.345   1.737  0.2960  0.3780  0.1721
   27HTM   C132 4897   9.889   1.438   1.683  0.4852  0.2998  0.3253
   27HTM   C133 4898  10.018   1.444   1.745  0.4548  0.0191  0.4141
   27HTM   C134 4899  10.034   1.354   1.846  0.2425 -0.1166  0.3285
   27HTM    S14 4900   9.886   1.255   1.872  0.0631  0.1012  0.1276
   28TAL   C135 4901  10.127   1.527   1.682  0.7717 -0.1027  1.2853
   28TAL   C136 4902  10.171   1.465   1.550  0.2462  0.3177 -0.2642
   28TAL   C137 4903  10.292   1.529   1.481 -0.5603 -0.7995 -0.5378
   28TAL   C138 4904  10.267   1.675   1.440 -0.2962  0.4875  0.3703
   28TAL   C139 4905  10.376   1.739   1.357  0.1982  0.2033 -0.3304
   28TAL   C140 4906  10.515   1.753   1.417 -0.3021 -0.0497  0.4102
   29HTM   C141 4907  10.142   1.332   1.941 -0.2377 -0.6542 -0.2223
   29HTM   C142 4908  10.168   1.211   1.998  0.0790 -0.5480 -0.1378
   29HTM   C143 4909  10.282   1.211   2.085  0.0724 -0.1839 -0.1280
   29HTM   C144 4910  10.344   1.332   2.093 -0.2493 -0.0127 -0.2051
   29HTM    S15 4911  10.262   1.456   1.992 -0.5714 -0.3000 -0.2968
   30TAL   C145 4912  10.333   1.085   2.152  0.4599 -0.2688  0.2358
   30TAL   C146 4913  10.253   0.951   2.146 -0.3155  0.1769 -0.0590
   30TAL   C147 4914  10.265   0.880   2.014  0.2958  0.0676  1.2708
   30TAL   C148 4915  10.167   0.763   2.000 -0.0979 -0.2407 -0.0975
   30TAL   C149 4916  10.016   0.788   2.022  0.3668 -0.1722  0.1175
   30TAL   C150 4917   9.933   0.874   1.925  0.0256  0.5845  0.1330
   31HTM   C151 4918  10.462   1.369   2.173 -0.2156 -0.1688  0.3464
   31HTM   C152 4919  10.473   1.483   2.248 -0.2470 -0.0237  0.1330
   31HTM   C153 4920  10.598   1.495   2.318 -0.1203  0.3048 -0.1493
   31HTM   C154 4921  10.684   1.391   2.296  0.0078  0.4099 -0.1510
   31HTM    S16 4922  10.612   1.268   2.184 -0.0220  0.0999  0.2065
   32TAL   C155 4923  10.613   1.609   2.417  0.0159  0.1563 -0.1813
   32TAL   C156 4924  10.511   1.609   2.527 -0.0609  0.1726 -0.5771
   32TAL   C157 4925  10.564   1.717   2.628  0.0959  0.0912 -0.4481
   32TAL   C158 4926  10.455   1.750   2.733 -0.1562  0.8443  0.1716
   32TAL   C159 4927  10.429   1.640   2.836 -0.0205 -0.9750 -0.8271
   32TAL   C160 4928  10.304   1.677   2.918  0.3032  0.7859  0.3786
   33HTM   C161 4929  10.807   1.361   2.363  0.2976  0.0153  0.2121
   33HTM   C162 4930  10.903   1.437   2.424  0.3381 -0.2874  0.5262
   33HTM   C163 4931  11.017   1.361   2.468  0.1345 -0.5872  0.5376
   33HTM   C164 4932  11.008   1.227   2.441 -0.0612 -0.5132  0.2321
   33HTM    S17 4933  10.853   1.187   2.357 -0.0031 -0.0555 -0.0960
   34TAL   C165 4934  11.135   1.432   2.535 -0.4396 -0.0271 -0.6634
   34TAL   C166 4935  11.114   1.473   2.685  0.1378 -0.4010  0.0282
   34TAL   C167 4936  11.005   1.583   2.713  0.4289  0.9554  0.1046
   34TAL   C168 4937  11.020   1.712   2.651 -0.0676 -0.7880  0.1348
   34TAL   C169 4938  10.911   1.816   2.666 -0.1938 -0.3662  0.2836
   34TAL   C170 4939  10.919   1.946   2.589  0.1248  0.1116 -0.4874
   35HTM   C171 4940  11.109   1.124   2.466 -0.1169  0.1263 -0.0295
   35HTM   C172 4941  11.234   1.125   2.521 -0.2844  0.2965  0.3458
   35HTM   C173 4942  11.304   1.000   2.508 -0.0736  0.3930  0.5543
   35HTM   C174 4943  11.233   0.904   2.443  0.2548  0.2964  0.3378
   35HTM    S18 4944  11.071   0.964   2.392  0.3235  0.0743 -0.1497
   36TAL   C175 4945  11.440   0.988   2.576 -0.3563 -0.2434 -0.6259
   36TAL   C176 4946  11.418   0.951   2.723  0.1945 -0.3601  0.5428
   36TAL   C177 4947  11.535   0.966   2.813 -0.1205 -0.2054 -0.5648
   36TAL   C178 4948  11.510   0.929   2.963 -0.2155  0.7883  0.0236
   36TAL   C179 4949  11.634   0.946   3.053  0.3363 -0.1066  0.0431
   36TAL   C180 4950  11.683   1.092   3.089  0.5248  0.3940  0.2212
   37HTM   C181 4951  11.255   0.764   2.412 -0.0776 -0.1024  0.5458
   37HTM   C182 4952  11.168   0.672   2.362 -0.2680  0.0363  0.6229
   37HTM   C183 4953  11.220   0.539   2.358 -0.3834 -0.0001  0.3110
   37HTM   C184 4954  11.348   0.528   2.405 -0.2808 -0.1667 -0.0035
   37HTM    S19 4955  11.412   0.689   2.458 -0.0286 -0.2914  0.0703
   38TAL   C185 4956  11.126   0.425   2.328  0.5068 -0.1474 -0.0603
   38TAL   C186 4957  11.080   0.414   2.186 -0.1901  0.7817  0.2175
   38TAL   C187 4958  11.197   0.423   2.080  0.0369  0.2915  0.1327
   38TAL   C188 4959  11.162   0.403   1.938 -0.0343 -0.1580 -0.0144
   38TAL   C189 4960  11.108   0.274   1.886 -0.0830 -0.4286  0.1424
   38TAL   C190 4961  11.043   0.282   1.751 -0.5239  0.2919 -0.4805
   39HTM   C191 4962  11.441   0.416   2.410 -0.2696 -0.0396  0.3722
   39HTM   C192 4963  11.577   0.426   2.424 -0.3625  0.2801  1.1002
   39HTM   C193 4964  11.645   0.299   2.417 -0.0072  0.4583  1.2864
   39HTM   C194 4965  11.561   0.193   2.398  0.3567  0.2744  0.7004
   39HTM    S20 4966  11.389   0.246   2.387  0.2782 -0.1413 -0.1388
   40TAL   C195 4967  11.794   0.291   2.422 -0.4001 -0.2626  0.2873
   40TAL   C196 4968  11.845   0.388   2.526  0.0614  0.3540 -0.4542
   40TAL   C197 4969  11.993   0.414   2.536 -0.1158 -0.9726 -0.3029
   40TAL   C198 4970  12.031   0.517   2.648  0.4677  0.8379  0.6583
   40TAL   C199 4971  12.170   0.490   2.701  0.5160 -0.1308 -0.8088
   40TAL   C200 4972  12.169   0.531   2.849  0.4107  0.9571  0.0896
   41HTM   C201 4973  11.574   0.048   2.387  0.2271  0.3245 -0.3711
   41HTM   C202 4974  11.473  -0.044   2.383  0.1384  0.4320 -0.5920
   41HTM   C203 4975  11.519  -0.180   2.382 -0.0010  0.3862 -0.6827
   41HTM   C204 4976  11.654  -0.193   2.387 -0.0186  0.2425 -0.5309
   41HTM    S21 4977  11.736  -0.032   2.392  0.1407  0.1544 -0.2597
   42TAL   C205 4978  11.421  -0.296   2.376  0.4463  0.4626  0.5895
   42TAL   C206 4979  11.275  -0.295   2.425  0.9100 -0.2023  0.0217
   42TAL   C207 4980  11.170  -0.219   2.350 -0.4970 -0.2344  0.0932
   42TAL   C208 4981  11.036  -0.216   2.424 -0.1283  0.4332 -0.2747
   42TAL   C209 4982  10.955  -0.348   2.454 -0.4487  0.3421 -0.2945
   42TAL   C210 4983  10.841  -0.313   2.559 -0.0869 -0.4034 -0.1669
   43HTM   C211 4984  11.731  -0.313   2.408  0.2713  0.0037 -0.0703
   43HTM   C212 4985  11.742  -0.380   2.526  0.3345  0.0968 -0.0221
   43HTM   C213 4986  11.836  -0.489   2.522  0.2390  0.0134 -0.0236
   43HTM   C214 4987  11.898  -0.504   2.401  0.1030 -0.1441 -0.0730
   43HTM    S22 4988  11.840  -0.382   2.282  0.0849 -0.1998 -0.1218
   44TAL   C215 4989  11.876  -0.562   2.653 -0.1724  0.1985 -0.7824
   44TAL   C216 4990  11.900  -0.718   2.656  0.0630  0.2544 -0.3949
   44TAL   C217 4991  11.783  -0.794   2.592  0.2797  0.6613  0.3213
   44TAL   C218 4992  11.803  -0.951   2.579 -0.3016  0.2227 -0.1475
   44TAL   C219 4993  11.933  -1.003   2.512  0.2402 -0.2869 -0.1560
   44TAL   C220 4994  11.930  -1.156   2.511  0.2944  0.4273  0.0037
   45HTM   C221 4995  11.987  -0.607   2.353  0.7302 -0.0007  0.1415
   45HTM   C222 4996  12.121  -0.623   2.374  0.7167 -0.3839 -0.0588
   45HTM   C223 4997  12.175  -0.743   2.315  0.3244 -0.4387 -0.3109
   45HTM   C224 4998  12.082  -0.818   2.250  0.0384 -0.0974 -0.3028
   45HTM    S23 4999  11.918  -0.743   2.257  0.2444  0.3231  0.0264
   46TAL   C225 5000  12.328  -0.778   2.318  0.3865  0.5231 -0.0985
   46TAL   C226 5001  12.409  -0.707   2.429 -0.4738 -0.1424  0.5278
   46TAL   C227 5002  12.557  -0.734   2.415 -0.3815 -0.3238  0.8975
   46TAL   C228 5003  12.612  -0.802   2.535  0.4768  0.3763  0.2188
   46TAL   C229 5004  12.758  -0.819   2.502  0.2440  0.5726  0.4739
   46TAL   C230 5005  12.842  -0.884   2.607 -0.1570  0.2351 -0.2336
   47HTM   C231 5006  12.099  -0.939   2.170 -0.0735 -0.0593  0.5171
   47HTM   C232 5007  12.144  -1.057   2.220 -0.4568 -0.2136  0.4926
   47HTM   C233 5008  12.141  -1.165   2.124 -0.4636 -0.1023  0.3674
   47HTM   C234 5009  12.096  -1.128   2.001 -0.0854  0.1370  0.2968
   47HTM    S24 5010  12.051  -0.953   1.997  0.3118  0.2410  0.3834
   48TAL   C235 5011  12.182  -1.309   2.152 -0.4580 -0.1283  0.4291
   48TAL   C236 5012  12.116  -1.374   2.266  0.0706 -0.9570 -0.0564
   48TAL   C237 5013  12.177  -1.513   2.296 -0.5846  0.3516  0.4666
   48TAL   C238 5014  12.100  -1.589   2.405  0.4035 -0.4603 -0.3697
   48TAL   C239 5015  12.153  -1.734   2.428 -0.0324  0.2995 -0.1191
   48TAL   C240 5016  12.070  -1.804   2.539 -0.0549 -0.0108 -0.2857
    1HTM     C1 5017   1.823   5.378   3.856 -0.1215 -0.0988  0.0246
    1HTM     C2 5018   1.874   5.503   3.867  0.0517 -0.1099 -0.5856
    1HTM     C3 5019   1.774   5.607   3.868  0.1769  0.0136 -0.8181
    1HTM     C4 5020   1.646   5.560   3.857  0.0991  0.1187 -0.3852
    1HTM     S1 5021   1.643   5.380   3.845 -0.1401  0.0701  0.3556
    2TAL     C5 5022   1.807   5.758   3.860  0.7417  0.5180 -0.3597
    2TAL     C6 5023   1.859   5.816   3.992  0.6408 -0.0191 -0.5084
    2TAL     C7 5024   1.771   5.935   4.033  0.1883  0.3374 -0.0967
    2TAL     C8 5025   1.625   5.917   4.081  0.0535  0.6338  0.0780
    2TAL     C9 5026   1.606   5.805   4.178  0.5534  0.1274  0.4563
    2TAL    C10 5027   1.461   5.781   4.212  0.2514 -0.0014  0.1309
    3HTM    C11 5028   1.512   5.618   3.867 -0.1970 -0.0839 -0.2833
    3HTM    C12 5029   1.401   5.557   3.916 -0.3718 -0.3355 -0.9730
    3HTM    C13 5030   1.280   5.634   3.901 -0.3355 -0.3059 -1.1051
    3HTM    C14 5031   1.300   5.754   3.839 -0.1329 -0.0318 -0.5158
    3HTM     S2 5032   1.473   5.779   3.796  0.0289  0.2115  0.2574
    4TAL    C15 5033   1.146   5.584   3.952  0.2082 -0.5716  0.1329
    4TAL    C16 5034   1.095   5.439   3.933 -0.0438  0.2339  0.2959
    4TAL    C17 5035   1.078   5.409   3.782  0.2407 -0.3568  0.6424
    4TAL    C18 5036   1.040   5.267   3.768 -0.1631  0.7362 -0.0934
    4TAL    C19 5037   0.970   5.207   3.642  0.7054 -0.4215 -0.1061
    4TAL    C20 5038   1.059   5.220   3.517  0.1026  1.2163  0.7211
    5HTM    C21 5039   1.217   5.863   3.804 -0.1309  0.0186  0.0691
    5HTM    C22 5040   1.251   5.961   3.716 -0.2108  0.0939  0.1212
    5HTM    C23 5041   1.166   6.077   3.723 -0.1495  0.1240  0.3580
    5HTM    C24 5042   1.068   6.068   3.817 -0.0230  0.0721  0.4864
    5HTM     S3 5043   1.074   5.910   3.904  0.0290 -0.0199  0.3169
    6TAL    C25 5044   1.173   6.182   3.615 -0.2057 -0.3570 -0.4985
    6TAL    C26 5045   1.124   6.137   3.473 -0.6435  0.1144  0.0900
    6TAL    C27 5046   0.991   6.050   3.451  0.3677  0.1621  0.0636
    6TAL    C28 5047   0.863   6.124   3.496  0.4323 -0.0013 -0.3595
    6TAL    C29 5048   0.744   6.036   3.529  0.1556 -0.3402  0.0179
    6TAL    C30 5049   0.624   6.125   3.569 -0.2071  0.3613  0.3751
    7HTM    C31 5050   0.971   6.163   3.862 -0.3746  0.0430  0.4025
    7HTM    C32 5051   0.866   6.139   3.946 -0.2719  0.4287  0.6459
    7HTM    C33 5052   0.800   6.258   3.993  0.0506  0.6592  0.5174
    7HTM    C34 5053   0.854   6.373   3.944  0.1938  0.4497  0.1763
    7HTM     S4 5054   0.994   6.340   3.835 -0.0696 -0.0591 -0.0108
    8TAL    C35 5055   0.689   6.241   4.089  0.4555 -0.3722  0.4972
    8TAL    C36 5056   0.584   6.129   4.066 -0.3195  0.5823 -0.5386
    8TAL    C37 5057   0.513   6.111   3.934 -0.4917 -0.1213 -0.7223
    8TAL    C38 5058   0.438   6.237   3.889 -0.5731 -0.0429 -0.2392
    8TAL    C39 5059   0.362   6.239   3.757  0.7782 -0.3431 -0.0092
    8TAL    C40 5060   0.229   6.168   3.758  0.5614  0.1362 -0.1921
    9HTM    C41 5061   0.811   6.512   3.953  0.2987 -0.2031  0.2724
    9HTM    C42 5062   0.879   6.615   3.896  0.5320 -0.3154  0.3449
    9HTM    C43 5063   0.825   6.745   3.928  0.5759 -0.2370  0.1043
    9HTM    C44 5064   0.716   6.740   4.010  0.3760 -0.0645 -0.1514
    9HTM     S5 5065   0.673   6.571   4.053  0.1148  0.0132 -0.1085
   10TAL    C45 5066   0.895   6.877   3.895 -0.2796  0.2235 -0.0662
   10TAL    C46 5067   1.050   6.874   3.881  0.2206  0.0617 -0.2952
   10TAL    C47 5068   1.113   7.006   3.840  0.3562 -0.0557  0.9010
   10TAL    C48 5069   1.106   7.117   3.942  0.4451 -0.0165 -0.0563
   10TAL    C49 5070   1.126   7.261   3.894  0.1876  0.5209  0.6017
   10TAL    C50 5071   1.043   7.302   3.772  0.5046 -0.5099  0.1784
   11HTM    C51 5072   0.647   6.838   4.087 -0.1532 -0.1400  0.0030
   11HTM    C52 5073   0.666   6.871   4.218 -0.1262 -0.2465  0.0257
   11HTM    C53 5074   0.596   6.989   4.259  0.1175 -0.1132  0.0601
   11HTM    C54 5075   0.523   7.047   4.160  0.2765  0.0956  0.0635
   11HTM     S6 5076   0.538   6.955   4.005  0.1295  0.1395  0.0233
   12TAL    C55 5077   0.601   7.037   4.406  0.7939 -0.3942 -0.1982
   12TAL    C56 5078   0.679   6.950   4.505 -0.3102 -0.0225  0.0765
   12TAL    C57 5079   0.644   6.955   4.650 -0.4555  0.4206  0.6873
   12TAL    C58 5080   0.514   6.880   4.679 -0.4705 -1.0183 -0.5398
   12TAL    C59 5081   0.407   6.972   4.728 -0.3137 -0.0648 -0.3681
   12TAL    C60 5082   0.275   6.889   4.745 -0.1794  0.0499 -0.7459
   13HTM    C61 5083   0.458   7.175   4.159 -0.1216  0.0598  0.0315
   13HTM    C62 5084   0.506   7.296   4.199 -0.2031  0.0029  0.2997
   13HTM    C63 5085   0.407   7.400   4.200 -0.2273 -0.0200  0.3424
   13HTM    C64 5086   0.283   7.359   4.160 -0.1642  0.0193  0.1070
   13HTM     S7 5087   0.283   7.183   4.118 -0.0686  0.0889 -0.1896
   14TAL    C65 5088   0.453   7.539   4.261 -0.9255  0.2220 -0.0738
   14TAL    C66 5089   0.468   7.657   4.160  0.4013 -0.1181 -0.3998
   14TAL    C67 5090   0.521   7.792   4.210 -0.4368  0.1056  0.2278
   14TAL    C68 5091   0.525   7.912   4.116  0.6575  0.2813 -0.3847
   14TAL    C69 5092   0.600   8.034   4.170  0.0480  0.3535 -0.4550
   14TAL    C70 5093   0.563   8.158   4.095 -0.2139 -0.2347  0.1204
   15HTM    C71 5094   0.160   7.423   4.158  0.0752  0.1378  0.1019
   15HTM    C72 5095   0.140   7.555   4.187 -0.0628  0.1512 -0.0474
   15HTM    C73 5096   0.001   7.593   4.194 -0.1001  0.0558 -0.2754
   15HTM    C74 5097  -0.085   7.490   4.170  0.0086 -0.0296 -0.3001
   15HTM     S8 5098   0.004   7.336   4.136  0.1690  0.0033 -0.0349
   16TAL    C75 5099  -0.033   7.736   4.214 -0.0585 -0.1231 -0.0645
   16TAL    C76 5100  -0.074   7.767   4.359 -0.3185  0.5992 -0.3005
   16TAL    C77 5101  -0.140   7.899   4.392 -0.1442  0.3430  0.1913
   16TAL    C78 5102  -0.258   7.935   4.296  0.1632 -0.1708 -0.4545
   16TAL    C79 5103  -0.329   8.058   4.333 -0.5998 -0.2155  0.1493
   16TAL    C80 5104  -0.443   8.092   4.252  0.6825  0.9890 -0.1609
   17HTM    C81 5105  -0.230   7.476   4.168 -0.2108 -0.4042  0.3099
   17HTM    C82 5106  -0.318   7.579   4.171 -0.1416 -0.3586  0.7987
   17HTM    C83 5107  -0.455   7.539   4.154 -0.1745 -0.1945  0.6771
   17HTM    C84 5108  -0.472   7.405   4.138 -0.2693 -0.1153  0.0954
   17HTM     S9 5109  -0.313   7.318   4.143 -0.3237 -0.2428 -0.3476
   18TAL    C85 5110  -0.564   7.649   4.166 -0.2127 -0.8594 -0.0321
   18TAL    C86 5111  -0.577   7.738   4.287  0.0785  0.0194 -0.2961
   18TAL    C87 5112  -0.696   7.833   4.294  0.0467  0.0144  0.0961
   18TAL    C88 5113  -0.720   7.873   4.439  0.2545 -0.2275  0.1947
   18TAL    C89 5114  -0.864   7.878   4.473  0.2061 -0.0318 -0.1610
   18TAL    C90 5115  -0.906   7.925   4.614 -0.1417 -0.3144  0.3159
   19HTM    C91 5116  -0.593   7.335   4.104  0.1119  0.2519 -0.2468
   19HTM    C92 5117  -0.707   7.379   4.044  0.0739 -0.2041 -0.5124
   19HTM    C93 5118  -0.801   7.274   4.015  0.3843 -0.5283 -0.3610
   19HTM    C94 5119  -0.759   7.150   4.053  0.6593 -0.3193  0.0199
   19HTM    S10 5120  -0.596   7.156   4.130  0.5465  0.3078  0.2183
   20TAL    C95 5121  -0.930   7.304   3.940 -0.1568  0.0713  0.1169
   20TAL    C96 5122  -0.929   7.423   3.842 -0.1134 -0.5454  0.0111
   20TAL    C97 5123  -1.053   7.466   3.763  0.1086  0.1962  0.1798
   20TAL    C98 5124  -1.030   7.573   3.659 -0.0904  0.2265 -0.6451
   20TAL    C99 5125  -1.155   7.584   3.567 -0.0770  0.1561 -0.8870
   20TAL   C100 5126  -1.141   7.706   3.479  0.3644 -0.2749 -0.2319
   21HTM   C101 5127  -0.814   7.023   4.036  0.2916  0.1001  0.4045
   21HTM   C102 5128  -0.943   6.995   4.001  0.2275  0.1290  0.6189
   21HTM   C103 5129  -0.976   6.855   4.011  0.2685  0.1101  0.4835
   21HTM   C104 5130  -0.872   6.777   4.052  0.3645  0.0667  0.1661
   21HTM    S11 5131  -0.723   6.875   4.083  0.4102  0.0461  0.0116
   22TAL   C105 5132  -1.124   6.813   3.998  0.2169  0.0457  0.3090
   22TAL   C106 5133  -1.217   6.910   4.054  0.1270 -0.0598 -0.0834
   22TAL   C107 5134  -1.361   6.867   4.034  0.4749  0.3514  0.2948
   22TAL   C108 5135  -1.479   6.965   4.069 -0.1832  0.1135 -0.3997
   22TAL   C109 5136  -1.496   7.003   4.216 -0.9805  0.4472  0.3282
   22TAL   C110 5137  -1.541   6.884   4.300 -0.1539  0.0611 -0.1883
   23HTM   C111 5138  -0.868   6.642   4.097  0.3313 -0.0782 -0.0592
   23HTM   C112 5139  -0.789   6.593   4.196  0.7052 -0.3028 -0.4654
   23HTM   C113 5140  -0.803   6.452   4.217  0.5431 -0.2935 -0.5114
   23HTM   C114 5141  -0.894   6.393   4.134  0.0443 -0.0617 -0.1402
   23HTM    S12 5142  -0.968   6.512   4.022 -0.2607  0.1652  0.2998
   24TAL   C115 5143  -0.722   6.380   4.312  0.0146 -0.0087 -0.5112
   24TAL   C116 5144  -0.596   6.447   4.373  0.4954  0.4584 -0.3738
   24TAL   C117 5145  -0.553   6.373   4.499 -0.1229  0.0150  0.3901
   24TAL   C118 5146  -0.651   6.352   4.617 -0.2499  0.0375 -0.3995
   24TAL   C119 5147  -0.679   6.480   4.694  0.3714 -0.0524  0.2479
   24TAL   C120 5148  -0.788   6.461   4.797 -0.0597 -0.1171 -0.3498
   25HTM   C121 5149  -0.953   6.260   4.129  0.2585 -0.0307  0.3890
   25HTM   C122 5150  -1.081   6.229   4.096  0.1695  0.4103  0.3140
   25HTM   C123 5151  -1.110   6.088   4.101 -0.1600  0.4547 -0.2580
   25HTM   C124 5152  -1.004   6.012   4.138 -0.3230  0.0479 -0.6192
   25HTM    S13 5153  -0.858   6.112   4.170 -0.0709 -0.4267 -0.2616
   26TAL   C125 5154  -1.245   6.036   4.057  0.0174  0.6577  0.4259
   26TAL   C126 5155  -1.282   6.034   3.907  0.8677 -0.0552  0.4173
   26TAL   C127 5156  -1.415   5.973   3.883  0.5726  0.4017 -0.0139
   26TAL   C128 5157  -1.472   5.971   3.744  0.4833  0.3341 -0.1475
   26TAL   C129 5158  -1.490   6.100   3.676  0.4035  0.1160  0.2684
   26TAL   C130 5159  -1.575   6.091   3.550 -0.0638  0.1584  0.2942
   27HTM   C131 5160  -0.993   5.865   4.162 -0.1139 -0.3002  0.1893
   27HTM   C132 5161  -0.877   5.794   4.178 -0.1907 -0.2930  0.8125
   27HTM   C133 5162  -0.898   5.653   4.198 -0.3028 -0.2501  0.9942
   27HTM   C134 5163  -1.029   5.616   4.198 -0.3111 -0.2252  0.5092
   27HTM    S14 5164  -1.138   5.758   4.172 -0.1758 -0.2533 -0.2199
   28TAL   C135 5165  -0.772   5.568   4.216 -0.5567 -0.6613  0.0053
   28TAL   C136 5166  -0.771   5.471   4.331  0.0588 -0.0901 -0.5853
   28TAL   C137 5167  -0.659   5.365   4.334  0.5701  0.1558 -0.2574
   28TAL   C138 5168  -0.682   5.263   4.444 -0.2068  0.0574  0.4365
   28TAL   C139 5169  -0.579   5.158   4.465 -0.2140 -0.1716 -0.2493
   28TAL   C140 5170  -0.616   5.070   4.587 -0.0007 -0.7318  0.3978
   29HTM   C141 5171  -1.088   5.487   4.217  0.0084  0.0294  0.5960
   29HTM   C142 5172  -1.213   5.463   4.265  0.2556 -0.1822  1.1361
   29HTM   C143 5173  -1.245   5.323   4.273  0.3462 -0.2220  0.8109
   29HTM   C144 5174  -1.145   5.240   4.230  0.1677 -0.0409  0.0228
   29HTM    S15 5175  -1.001   5.334   4.177 -0.1305  0.1961 -0.3725
   30TAL   C145 5176  -1.390   5.275   4.309 -0.8733  0.2252 -0.4730
   30TAL   C146 5177  -1.500   5.355   4.235 -0.1835  1.2678  0.3269
   30TAL   C147 5178  -1.627   5.270   4.228 -0.5681 -0.7120  0.0410
   30TAL   C148 5179  -1.749   5.352   4.193  0.8060  0.0598  0.2340
   30TAL   C149 5180  -1.877   5.267   4.157  0.0509 -0.0092 -0.2726
   30TAL   C150 5181  -2.004   5.346   4.155 -0.2074 -0.5474 -0.4677
   31HTM   C151 5182  -1.127   5.101   4.272  0.1932 -0.0557  0.3229
   31HTM   C152 5183  -1.015   5.045   4.325 -0.0384 -0.1810  0.6859
   31HTM   C153 5184  -1.027   4.904   4.352 -0.3381 -0.1323  0.8056
   31HTM   C154 5185  -1.149   4.853   4.320 -0.3355  0.0306  0.5337
   31HTM    S16 5186  -1.259   4.979   4.252  0.0493  0.1352  0.1024
   32TAL   C155 5187  -0.903   4.843   4.407 -0.1779  0.5978  0.3539
   32TAL   C156 5188  -0.904   4.760   4.532 -0.3617  0.3475  0.5934
   32TAL   C157 5189  -0.970   4.814   4.659  0.0182 -0.2807 -0.2332
   32TAL   C158 5190  -1.044   4.707   4.737  0.5085  0.6719  0.1482
   32TAL   C159 5191  -0.945   4.645   4.834  0.2758 -0.0836 -0.7519
   32TAL   C160 5192  -1.011   4.550   4.941 -0.2599 -0.3258  0.3264
   33HTM   C161 5193  -1.180   4.710   4.307 -0.2842 -0.0589 -0.4594
   33HTM   C162 5194  -1.250   4.650   4.408 -0.8831 -0.0134 -0.8416
   33HTM   C163 5195  -1.250   4.506   4.402 -0.7784 -0.0181 -0.7336
   33HTM   C164 5196  -1.180   4.456   4.296 -0.0999 -0.0679 -0.2691
   33HTM    S17 5197  -1.108   4.588   4.196  0.4640 -0.1122  0.0709
   34TAL   C165 5198  -1.329   4.439   4.513  0.6236 -0.3170 -0.1389
   34TAL   C166 5199  -1.298   4.291   4.545 -0.4216 -0.0850 -0.5156
   34TAL   C167 5200  -1.415   4.210   4.614  0.2942 -0.0727  0.7927
   34TAL   C168 5201  -1.369   4.065   4.660 -0.0733 -0.3137  0.4515
   34TAL   C169 5202  -1.327   3.962   4.549 -0.4565 -0.4691  0.1035
   34TAL   C170 5203  -1.321   3.815   4.615 -0.3042 -0.1808 -0.3776
   35HTM   C171 5204  -1.163   4.322   4.259  0.0846 -0.3668  0.2269
   35HTM   C172 5205  -1.049   4.248   4.265 -0.0532 -0.5774  0.2801
   35HTM   C173 5206  -1.069   4.107   4.239 -0.2651 -0.5038  0.0365
   35HTM   C174 5207  -1.199   4.074   4.215 -0.2886 -0.2369 -0.2022
   35HTM    S18 5208  -1.307   4.219   4.221 -0.0433 -0.0567 -0.1374
   36TAL   C175 5209  -0.945   4.025   4.258  0.1255  0.4018  0.8567
   36TAL   C176 5210  -0.873   4.009   4.124 -0.0391  0.4715  0.5860
   36TAL   C177 5211  -0.749   3.913   4.126  0.7929 -0.0282 -0.0041
   36TAL   C178 5212  -0.626   3.962   4.207  0.5034 -0.4921  0.5409
   36TAL   C179 5213  -0.508   3.864   4.210  0.3690 -0.2766 -0.3536
   36TAL   C180 5214  -0.521   3.716   4.255  0.0060 -0.2888 -0.4655
   37HTM   C181 5215  -1.262   3.948   4.164  0.1456  0.3549  0.1877
   37HTM   C182 5216  -1.390   3.918   4.203  0.1612  0.6438  0.4687
   37HTM   C183 5217  -1.426   3.780   4.181 -0.1929  0.7206  0.5643
   37HTM   C184 5218  -1.326   3.705   4.127 -0.4787  0.4903  0.3560
   37HTM    S19 5219  -1.178   3.804   4.098 -0.3212  0.1560  0.0207
   38TAL   C185 5220  -1.570   3.735   4.207  0.3597 -0.2271 -0.4042
   38TAL   C186 5221  -1.694   3.788   4.126 -0.7883 -0.4751  0.0105
   38TAL   C187 5222  -1.819   3.699   4.139 -0.4648 -0.2177 -0.3811
   38TAL   C188 5223  -1.809   3.552   4.116 -0.2267  0.5523 -0.3598
   38TAL   C189 5224  -1.800   3.508   3.971 -0.0978 -0.3593  0.3566
   38TAL   C190 5225  -1.685   3.422   3.938  0.9210 -0.3451  0.2526
   39HTM   C191 5226  -1.320   3.560   4.099 -0.4279  0.4161 -0.3959
   39HTM   C192 5227  -1.239   3.504   4.005 -0.4494  0.4854 -0.4568
   39HTM   C193 5228  -1.257   3.362   3.990 -0.1853  0.4326 -0.2867
   39HTM   C194 5229  -1.353   3.310   4.073  0.0382  0.3231 -0.0952
   39HTM    S20 5230  -1.427   3.437   4.176 -0.0690  0.2778 -0.1160
   40TAL   C195 5231  -1.176   3.286   3.890  0.4586 -0.4570 -0.4368
   40TAL   C196 5232  -1.037   3.235   3.931  0.0757  0.4033 -0.2159
   40TAL   C197 5233  -0.960   3.140   3.843  0.2716 -0.2245 -0.4878
   40TAL   C198 5234  -1.009   2.994   3.831 -0.4174 -0.4581 -0.0570
   40TAL   C199 5235  -0.918   2.902   3.757 -0.4864  0.5858  0.7700
   40TAL   C200 5236  -0.983   2.767   3.734  0.4221  0.1101 -0.6682
   41HTM   C201 5237  -1.402   3.175   4.086  0.1795 -0.3995  0.3051
   41HTM   C202 5238  -1.501   3.136   4.171  0.3300 -0.5344  0.4196
   41HTM   C203 5239  -1.543   2.999   4.154  0.0775 -0.4115  0.0627
   41HTM   C204 5240  -1.476   2.934   4.054 -0.2658 -0.1829 -0.3241
   41HTM    S21 5241  -1.354   3.040   3.975 -0.2973 -0.1043 -0.2670
   42TAL   C205 5242  -1.646   2.945   4.251 -0.5238 -0.8363  0.2880
   42TAL   C206 5243  -1.762   3.045   4.283  0.3433 -0.0318 -0.1777
   42TAL   C207 5244  -1.865   3.057   4.173  0.5200 -0.1691 -0.2845
   42TAL   C208 5245  -1.988   3.134   4.226 -0.3144 -0.1833 -0.0805
   42TAL   C209 5246  -2.080   3.167   4.114  0.3514  0.3731 -0.6361
   42TAL   C210 5247  -2.196   3.257   4.168  0.6205 -0.5361  0.2989
   43HTM   C211 5248  -1.476   2.794   4.017  0.0767 -0.0523 -0.0039
   43HTM   C212 5249  -1.369   2.734   3.958 -0.0043 -0.3457  0.1460
   43HTM   C213 5250  -1.393   2.596   3.922 -0.2339 -0.3662  0.3709
   43HTM   C214 5251  -1.518   2.552   3.953 -0.3274 -0.0887  0.3920
   43HTM    S22 5252  -1.616   2.681   4.032 -0.1315  0.2229  0.1278
   44TAL   C215 5253  -1.287   2.514   3.845  0.1885 -0.3257  0.4053
   44TAL   C216 5254  -1.165   2.471   3.930  0.6201 -0.0224  0.6412
   44TAL   C217 5255  -1.073   2.364   3.864  0.3690  0.2664  0.2415
   44TAL   C218 5256  -1.139   2.234   3.805 -0.3578 -0.1737  0.4816
   44TAL   C219 5257  -1.185   2.140   3.917  0.0708  0.0817 -0.3334
   44TAL   C220 5258  -1.276   2.025   3.867 -0.6767  0.1720  0.1989
   45HTM   C221 5259  -1.574   2.420   3.929  0.1711 -0.3168  0.2699
   45HTM   C222 5260  -1.564   2.344   3.817  0.3846 -0.5660  0.4592
   45HTM   C223 5261  -1.648   2.227   3.818  0.1671 -0.4100  0.4344
   45HTM   C224 5262  -1.723   2.215   3.931 -0.2124 -0.0417  0.2263
   45HTM    S23 5263  -1.693   2.350   4.046 -0.3258  0.1379  0.0444
   46TAL   C225 5264  -1.655   2.137   3.693  0.7360  0.2648 -0.9138
   46TAL   C226 5265  -1.543   2.142   3.587  0.3414 -0.2567 -0.2825
   46TAL   C227 5266  -1.532   2.022   3.494 -0.5118  0.0797  0.2410
   46TAL   C228 5267  -1.430   2.029   3.385  0.1538 -0.5680 -0.5012
   46TAL   C229 5268  -1.283   2.015   3.419  0.0763  0.3877 -0.2707
   46TAL   C230 5269  -1.200   2.063   3.306 -0.6030  0.2562  0.2417
   47HTM   C231 5270  -1.803   2.101   3.976 -0.0063 -0.0268  0.3022
   47HTM   C232 5271  -1.784   1.968   3.951 -0.0699 -0.0274  0.2578
   47HTM   C233 5272  -1.880   1.883   4.017 -0.2384  0.0098  0.0637
   47HTM   C234 5273  -1.971   1.951   4.093 -0.3033  0.0386 -0.0401
   47HTM    S24 5274  -1.943   2.129   4.086 -0.1552  0.0209  0.1010
   48TAL   C235 5275  -1.875   1.728   4.003 -0.5815  0.3061  0.7868
   48TAL   C236 5276  -1.987   1.641   4.052  0.2477 -0.1537  0.1175
   48TAL   C237 5277  -1.987   1.497   4.008 -0.1029  0.2849 -0.0716
   48TAL   C238 5278  -1.855   1.417   4.002 -0.4766  0.1270  0.1632
   48TAL   C239 5279  -1.878   1.291   3.924  0.2559  1.1311  0.5965
   48TAL   C240 5280  -1.743   1.215   3.898  0.2036 -0.5203 -0.1986
    1HTM     C1 5281   7.073   4.311   2.191 -0.0869 -0.2055 -0.2108
    1HTM     C2 5282   7.032   4.182   2.184 -0.2074 -0.1683 -0.1931
    1HTM     C3 5283   6.894   4.163   2.220 -0.2029 -0.0465 -0.1104
    1HTM     C4 5284   6.830   4.278   2.254 -0.0785  0.0097 -0.0651
    1HTM     S1 5285   6.940   4.421   2.243  0.0428 -0.0883 -0.1238
    2TAL     C5 5286   6.823   4.024   2.215 -0.1678 -0.3294  0.6110
    2TAL     C6 5287   6.890   3.905   2.141 -0.6252 -0.3677 -0.0012
    2TAL     C7 5288   7.029   3.851   2.178 -0.2212 -0.0643 -0.7677
    2TAL     C8 5289   7.059   3.787   2.317 -0.4744 -0.3783 -0.1122
    2TAL     C9 5290   7.044   3.876   2.443  1.1099  0.3272 -0.1211
    2TAL    C10 5291   7.000   3.800   2.563 -0.4089 -0.2176 -0.0413
    3HTM    C11 5292   6.696   4.306   2.295 -0.2243  0.4263  0.1097
    3HTM    C12 5293   6.653   4.428   2.341 -0.2940  0.2971  0.3897
    3HTM    C13 5294   6.512   4.431   2.371 -0.2522  0.0830  0.6125
    3HTM    C14 5295   6.448   4.313   2.349 -0.1509  0.0485  0.5023
    3HTM     S2 5296   6.561   4.187   2.287 -0.1003  0.2860  0.1057
    4TAL    C15 5297   6.446   4.553   2.432  0.6414 -0.1989  0.0893
    4TAL    C16 5298   6.515   4.667   2.496 -0.5317  0.7817  0.1002
    4TAL    C17 5299   6.443   4.782   2.552  0.8728 -0.5081 -0.4625
    4TAL    C18 5300   6.537   4.874   2.623  0.0251 -0.1771  0.6035
    4TAL    C19 5301   6.611   4.819   2.746  0.3810 -0.7818  0.5498
    4TAL    C20 5302   6.711   4.923   2.803 -0.4900 -0.2067  0.2379
    5HTM    C21 5303   6.307   4.273   2.362  0.1076 -0.3058 -0.1377
    5HTM    C22 5304   6.195   4.345   2.333  0.2379  0.1149  0.4003
    5HTM    C23 5305   6.073   4.271   2.349  0.0532  0.4671  0.6403
    5HTM    C24 5306   6.092   4.142   2.389 -0.2179  0.3150  0.2852
    5HTM     S3 5307   6.267   4.104   2.411 -0.2612 -0.2895 -0.3848
    6TAL    C25 5308   5.940   4.339   2.326 -0.1508 -0.2781  0.3696
    6TAL    C26 5309   5.856   4.363   2.453  0.0030  0.3395  0.0608
    6TAL    C27 5310   5.724   4.440   2.432 -0.7259  0.0531 -0.1962
    6TAL    C28 5311   5.747   4.594   2.420 -0.2094  1.6151  0.4134
    6TAL    C29 5312   5.640   4.669   2.341 -0.1089  0.5336 -0.6631
    6TAL    C30 5313   5.673   4.815   2.312  0.5894  0.4805  0.9745
    7HTM    C31 5314   6.000   4.034   2.400  0.4147 -0.6453  0.0896
    7HTM    C32 5315   5.997   3.921   2.324  0.5670 -0.9487  0.5289
    7HTM    C33 5316   5.905   3.821   2.372  0.3543 -0.6950  0.6518
    7HTM    C34 5317   5.838   3.858   2.485  0.0401 -0.1982  0.3063
    7HTM     S4 5318   5.886   4.023   2.540 -0.0119 -0.0109 -0.2052
    8TAL    C35 5319   5.882   3.697   2.298  0.3135 -0.0110 -0.8507
    8TAL    C36 5320   5.966   3.579   2.338 -0.2098  0.3223 -0.6602
    8TAL    C37 5321   5.914   3.445   2.298 -0.1176 -0.7182 -0.1004
    8TAL    C38 5322   5.995   3.330   2.361 -0.6212  0.3921 -0.0294
    8TAL    C39 5323   5.938   3.194   2.324 -0.5792 -0.1043 -0.3572
    8TAL    C40 5324   6.022   3.073   2.378  0.0276  0.6733  0.1735
    9HTM    C41 5325   5.752   3.777   2.563  0.1785  0.0012  0.0438
    9HTM    C42 5326   5.616   3.774   2.546  0.2024 -0.1879 -0.1161
    9HTM    C43 5327   5.552   3.663   2.611  0.2372 -0.0688  0.1212
    9HTM    C44 5328   5.639   3.582   2.678  0.2404  0.2111  0.4626
    9HTM     S5 5329   5.809   3.639   2.663  0.1986  0.3469  0.5108
   10TAL    C45 5330   5.399   3.641   2.611  0.2351  0.1792  0.0152
   10TAL    C46 5331   5.319   3.709   2.719  0.3288  0.4139 -0.1406
   10TAL    C47 5332   5.362   3.838   2.764  0.7712 -0.4767  0.1907
   10TAL    C48 5333   5.256   3.889   2.868  0.1263  0.3134 -0.1526
   10TAL    C49 5334   5.299   4.016   2.932 -0.5457 -0.2509 -0.0212
   10TAL    C50 5335   5.185   4.085   3.007 -0.5449 -0.6016 -0.4895
   11HTM    C51 5336   5.632   3.447   2.735  0.1165  0.1302 -0.1838
   11HTM    C52 5337   5.726   3.349   2.727 -0.1206 -0.0815 -0.3986
   11HTM    C53 5338   5.696   3.233   2.805 -0.2007 -0.0101 -0.3237
   11HTM    C54 5339   5.578   3.242   2.873 -0.0242  0.2559 -0.0515
   11HTM     S6 5340   5.496   3.400   2.843  0.2589  0.4385  0.1325
   12TAL    C55 5341   5.777   3.108   2.788 -0.9073 -0.1250 -0.4882
   12TAL    C56 5342   5.934   3.125   2.793 -0.5673  0.1694 -0.1043
   12TAL    C57 5343   6.014   2.991   2.793  0.0480  0.3080  0.3704
   12TAL    C58 5344   5.984   2.871   2.704 -0.4637 -0.2609 -0.0148
   12TAL    C59 5345   6.069   2.762   2.741 -0.2421 -0.4041  0.0930
   12TAL    C60 5346   6.004   2.632   2.700 -0.0306  0.2693  0.4321
   13HTM    C61 5347   5.525   3.169   2.985 -0.1586  0.4140  0.1995
   13HTM    C62 5348   5.599   3.146   3.098 -0.1090  0.6177  0.2083
   13HTM    C63 5349   5.519   3.111   3.213 -0.0370  0.5521  0.2378
   13HTM    C64 5350   5.385   3.107   3.188 -0.0317  0.2979  0.2515
   13HTM     S7 5351   5.349   3.147   3.016 -0.1177  0.1208  0.2281
   14TAL    C65 5352   5.589   3.097   3.339 -0.6490  0.1261 -0.6642
   14TAL    C66 5353   5.652   2.961   3.362  0.0319 -0.1840  0.5930
   14TAL    C67 5354   5.677   2.919   3.505  0.4264  0.7887 -0.2627
   14TAL    C68 5355   5.744   2.782   3.531  0.5784  0.5219 -0.3325
   14TAL    C69 5356   5.883   2.745   3.479 -0.3865  0.0461  0.2848
   14TAL    C70 5357   5.899   2.602   3.533  0.3134  0.1403 -0.1769
   15HTM    C71 5358   5.279   3.067   3.274  0.0142 -0.1503  0.2398
   15HTM    C72 5359   5.180   3.150   3.317  0.2966 -0.0331  0.6702
   15HTM    C73 5360   5.086   3.087   3.407  0.4461 -0.0006  0.8508
   15HTM    C74 5361   5.114   2.956   3.432  0.2778 -0.0931  0.5580
   15HTM     S8 5362   5.261   2.902   3.344 -0.0850 -0.2291  0.0273
   16TAL    C75 5363   4.963   3.166   3.448  0.5025 -0.1557 -0.2654
   16TAL    C76 5364   4.924   3.297   3.382  0.6005  0.4455 -0.0319
   16TAL    C77 5365   4.771   3.315   3.373  0.5219  0.2738 -0.0498
   16TAL    C78 5366   4.726   3.442   3.315  0.0306 -0.2419 -0.6747
   16TAL    C79 5367   4.575   3.447   3.302  0.3743  0.1190  0.9002
   16TAL    C80 5368   4.515   3.571   3.225  0.4350  0.6941 -0.4058
   17HTM    C81 5369   5.044   2.853   3.512  0.0267  0.1238 -0.1941
   17HTM    C82 5370   5.103   2.750   3.580 -0.0298  0.3515  0.2036
   17HTM    C83 5371   5.009   2.665   3.648 -0.0937  0.5229  0.3326
   17HTM    C84 5372   4.879   2.702   3.632 -0.0855  0.4256  0.0336
   17HTM     S9 5373   4.865   2.850   3.529  0.0044  0.1076 -0.4381
   18TAL    C85 5374   5.061   2.552   3.747  0.2580  0.0663  0.1519
   18TAL    C86 5375   5.214   2.538   3.762 -0.4658 -0.6255 -0.0975
   18TAL    C87 5376   5.274   2.421   3.832  0.0742  0.5384 -0.6052
   18TAL    C88 5377   5.425   2.426   3.814  0.2911  0.7592 -0.4218
   18TAL    C89 5378   5.500   2.305   3.875  0.2889 -0.6516  0.1320
   18TAL    C90 5379   5.641   2.303   3.832  0.0637  0.1324 -0.2279
   19HTM    C91 5380   4.755   2.628   3.661  0.2841 -0.2905  0.2807
   19HTM    C92 5381   4.631   2.680   3.687  0.3195 -0.0571 -0.0159
   19HTM    C93 5382   4.530   2.581   3.712  0.1137  0.1388 -0.0635
   19HTM    C94 5383   4.577   2.453   3.705 -0.0780  0.0545  0.1966
   19HTM    S10 5384   4.753   2.448   3.666 -0.0138 -0.2812  0.5244
   20TAL    C95 5385   4.389   2.624   3.720 -0.7497  0.3929  0.6035
   20TAL    C96 5386   4.336   2.698   3.594 -0.1170 -0.1254 -0.0902
   20TAL    C97 5387   4.191   2.729   3.572  0.0246 -0.0928  0.2742
   20TAL    C98 5388   4.092   2.612   3.565  0.7176 -0.8945 -0.3379
   20TAL    C99 5389   4.046   2.536   3.688  0.8127  0.9440 -0.1088
   20TAL   C100 5390   3.942   2.428   3.648 -0.9788 -0.3284 -0.3048
   21HTM   C101 5391   4.505   2.327   3.714 -0.1474  0.1967  0.2352
   21HTM   C102 5392   4.372   2.294   3.710 -0.1330  0.1224  0.3800
   21HTM   C103 5393   4.346   2.156   3.741 -0.0200  0.1010  0.3822
   21HTM   C104 5394   4.458   2.083   3.767  0.0512  0.1589  0.2390
   21HTM    S11 5395   4.607   2.184   3.756 -0.0186  0.2457  0.0892
   22TAL   C105 5396   4.201   2.113   3.728  0.8441 -0.1109 -0.5953
   22TAL   C106 5397   4.164   2.037   3.603 -0.4708  0.5225 -0.0063
   22TAL   C107 5398   4.032   1.961   3.583  0.4731  0.9314 -0.2335
   22TAL   C108 5399   3.994   1.863   3.698  0.3172  0.4319 -0.0102
   22TAL   C109 5400   3.861   1.792   3.679  0.1121 -0.3282  0.7633
   22TAL   C110 5401   3.823   1.745   3.820  0.4208 -0.2713  0.1582
   23HTM   C111 5402   4.478   1.946   3.816 -0.0014 -0.2593  0.3007
   23HTM   C112 5403   4.378   1.862   3.856  0.0272 -0.4171  0.0445
   23HTM   C113 5404   4.426   1.743   3.922  0.0572 -0.4652 -0.0646
   23HTM   C114 5405   4.562   1.736   3.932  0.0512 -0.3441  0.1084
   23HTM    S12 5406   4.641   1.881   3.858  0.0067 -0.1585  0.4249
   24TAL   C115 5407   4.332   1.643   3.971  0.5437 -0.3047 -0.2719
   24TAL   C116 5408   4.268   1.543   3.866 -0.3371 -0.1439  0.2323
   24TAL   C117 5409   4.221   1.403   3.925 -0.3221  0.1472 -0.5835
   24TAL   C118 5410   4.123   1.401   4.037 -0.6345 -0.4595  0.8831
   24TAL   C119 5411   3.990   1.473   4.019  0.8828 -0.5033 -0.1415
   24TAL   C120 5412   3.897   1.426   4.128 -0.1521  0.5970 -0.4291
   25HTM   C121 5413   4.645   1.627   3.979  0.1248  0.0002 -0.2410
   25HTM   C122 5414   4.666   1.586   4.108  0.4025  0.3756 -0.1631
   25HTM   C123 5415   4.751   1.471   4.119  0.5031  0.4659 -0.0048
   25HTM   C124 5416   4.797   1.424   3.999  0.3026  0.1594  0.0379
   25HTM    S13 5417   4.734   1.523   3.862 -0.0320 -0.2703 -0.1194
   26TAL   C125 5418   4.802   1.405   4.250 -0.0579  0.2535  0.4755
   26TAL   C126 5419   4.834   1.491   4.373  0.0512 -0.3736 -0.5209
   26TAL   C127 5420   4.909   1.624   4.360  0.9535  0.4903  0.0707
   26TAL   C128 5421   5.052   1.601   4.303 -0.2295 -0.6724  0.2804
   26TAL   C129 5422   5.163   1.692   4.361 -0.4955  0.0513  0.2322
   26TAL   C130 5423   5.294   1.657   4.301 -0.4954 -0.0547 -0.7262
   27HTM   C131 5424   4.865   1.305   3.962  0.0848  0.3164 -0.2028
   27HTM   C132 5425   4.963   1.300   3.867  0.1633  0.0314 -0.1059
   27HTM   C133 5426   5.020   1.169   3.850  0.0851 -0.0489  0.2416
   27HTM   C134 5427   4.965   1.074   3.931 -0.0535  0.1750  0.4099
   27HTM    S14 5428   4.836   1.144   4.037 -0.0958  0.5071  0.1404
   28TAL   C135 5429   5.142   1.147   3.757 -0.0239 -0.2672  0.0432
   28TAL   C136 5430   5.262   1.244   3.769 -0.2505  0.1420  0.3198
   28TAL   C137 5431   5.391   1.182   3.720 -0.3169  0.3195 -0.0016
   28TAL   C138 5432   5.446   1.079   3.816  0.3017 -0.0599  0.1136
   28TAL   C139 5433   5.580   1.018   3.788  0.6023 -0.1848  0.1409
   28TAL   C140 5434   5.602   0.883   3.860 -0.7913 -0.3671  0.0992
   29HTM   C141 5435   4.994   0.931   3.945 -0.0888 -0.0056 -0.2535
   29HTM   C142 5436   4.903   0.836   3.982 -0.2165 -0.0871 -0.7781
   29HTM   C143 5437   4.956   0.702   3.980 -0.2444 -0.0958 -1.0008
   29HTM   C144 5438   5.087   0.695   3.943 -0.1375 -0.0211 -0.6459
   29HTM    S15 5439   5.154   0.858   3.906  0.0073  0.0669  0.0020
   30TAL   C145 5440   4.871   0.582   4.005  0.2392 -0.3349  0.5194
   30TAL   C146 5441   4.730   0.589   3.950  0.1999  0.4359  0.1122
   30TAL   C147 5442   4.654   0.456   3.956 -0.2832 -0.7486 -0.4166
   30TAL   C148 5443   4.517   0.441   3.902  0.5958 -0.1390  0.1508
   30TAL   C149 5444   4.452   0.304   3.920 -0.0331  0.5071 -0.0202
   30TAL   C150 5445   4.311   0.314   3.862 -0.7775 -0.4348  0.4355
   31HTM   C151 5446   5.183   0.590   3.948 -0.3644 -0.3099 -0.1665
   31HTM   C152 5447   5.319   0.605   3.954 -0.3965 -0.0130 -0.2006
   31HTM   C153 5448   5.391   0.481   3.962 -0.1214  0.1447 -0.2275
   31HTM   C154 5449   5.311   0.371   3.962  0.1205 -0.0319 -0.2138
   31HTM    S16 5450   5.137   0.416   3.952  0.0187 -0.4141 -0.1657
   32TAL   C155 5451   5.541   0.481   3.978  0.6632  0.4314  0.4049
   32TAL   C156 5452   5.621   0.493   3.849 -0.8478  0.3661 -0.0015
   32TAL   C157 5453   5.765   0.525   3.879  0.1977 -0.4377 -0.1105
   32TAL   C158 5454   5.866   0.527   3.771  0.1541  0.1105 -0.6866
   32TAL   C159 5455   5.833   0.613   3.650  0.1157  0.6091  0.4498
   32TAL   C160 5456   5.946   0.603   3.549  0.1761  0.1936  0.1221
   33HTM   C161 5457   5.337   0.227   3.987 -0.1700 -0.1090 -0.3681
   33HTM   C162 5458   5.244   0.137   4.031 -0.0465 -0.1700 -0.2277
   33HTM   C163 5459   5.299   0.009   4.067  0.1547  0.0248  0.1588
   33HTM   C164 5460   5.435   0.002   4.052  0.1849  0.2348  0.3133
   33HTM    S17 5461   5.503   0.156   3.989 -0.0405  0.2016 -0.0202
   34TAL   C165 5462   5.204  -0.105   4.107 -0.4884 -0.1012  0.2468
   34TAL   C166 5463   5.145  -0.079   4.242 -0.1776  0.1874  0.1540
   34TAL   C167 5464   5.017  -0.145   4.289  0.0404 -0.5159  0.1947
   34TAL   C168 5465   4.890  -0.102   4.221  0.4218  0.2343 -0.2824
   34TAL   C169 5466   4.869   0.049   4.210 -0.0034 -0.2471 -0.1068
   34TAL   C170 5467   4.724   0.077   4.177  0.0537  0.0139  0.0779
   35HTM   C171 5468   5.529  -0.111   4.061 -0.0073 -0.2220  0.5916
   35HTM   C172 5469   5.665  -0.110   4.061 -0.0062 -0.3548  0.7079
   35HTM   C173 5470   5.725  -0.239   4.039 -0.1128 -0.3452  0.3686
   35HTM   C174 5471   5.633  -0.339   4.021 -0.1952 -0.2060 -0.0067
   35HTM    S18 5472   5.464  -0.277   4.032 -0.1442 -0.0743  0.0397
   36TAL   C175 5473   5.880  -0.241   4.041 -0.2315  0.5404  0.2200
   36TAL   C176 5474   5.947  -0.368   3.992 -0.0348  0.3845 -0.2678
   36TAL   C177 5475   6.096  -0.355   3.991 -0.3033  0.1410  0.0409
   36TAL   C178 5476   6.170  -0.492   3.958 -0.3675  0.9737  0.9756
   36TAL   C179 5477   6.321  -0.469   3.931  0.4044 -0.0216 -0.2127
   36TAL   C180 5478   6.384  -0.607   3.916 -0.6256  0.8243  0.1001
   37HTM   C181 5479   5.636  -0.483   4.007 -0.2426 -0.1026 -0.0049
   37HTM   C182 5480   5.709  -0.573   4.079 -0.6509 -0.2155  0.2701
   37HTM   C183 5481   5.674  -0.711   4.053 -0.8144 -0.1597  0.1924
   37HTM   C184 5482   5.575  -0.725   3.961 -0.5308 -0.0036 -0.1423
   37HTM    S19 5483   5.517  -0.566   3.900 -0.0313  0.0847 -0.3872
   38TAL   C185 5484   5.748  -0.823   4.125 -0.6288  0.2725 -0.0126
   38TAL   C186 5485   5.882  -0.792   4.198  0.0925  0.2922 -0.2210
   38TAL   C187 5486   5.961  -0.920   4.244 -0.2649 -0.2627  0.5365
   38TAL   C188 5487   5.894  -1.018   4.332  0.1843  0.5858  0.1832
   38TAL   C189 5488   5.978  -1.143   4.361 -0.1628 -0.2551 -0.0578
   38TAL   C190 5489   5.910  -1.238   4.463 -0.1757 -0.6820  0.5621
   39HTM   C191 5490   5.513  -0.836   3.898 -0.3913  0.1335  0.3387
   39HTM   C192 5491   5.408  -0.827   3.811 -0.0944  0.2723 -0.0051
   39HTM   C193 5492   5.364  -0.955   3.760  0.1588  0.3614 -0.4584
   39HTM   C194 5493   5.435  -1.061   3.809  0.0550  0.2909 -0.4599
   39HTM    S20 5494   5.564  -1.007   3.923 -0.3740  0.1049  0.1151
   40TAL   C195 5495   5.243  -0.942   3.670  0.2636 -0.1173 -0.2879
   40TAL   C196 5496   5.172  -1.066   3.619 -0.2206 -0.6138 -0.3506
   40TAL   C197 5497   5.053  -1.038   3.535 -0.1590  0.0370  0.5307
   40TAL   C198 5498   5.004  -1.151   3.439 -0.5971  0.2386  0.1354
   40TAL   C199 5499   4.874  -1.128   3.369  0.3968  0.1901 -1.4495
   40TAL   C200 5500   4.844  -1.237   3.277  0.0572  0.0356  0.5006
   41HTM   C201 5501   5.430  -1.200   3.784  0.3271  0.0092 -0.3066
   41HTM   C202 5502   5.479  -1.267   3.676 -0.0491 -0.3476 -0.2575
   41HTM   C203 5503   5.502  -1.407   3.701 -0.4849 -0.3834 -0.0432
   41HTM   C204 5504   5.471  -1.447   3.828 -0.4406 -0.0540  0.0713
   41HTM    S21 5505   5.409  -1.309   3.926  0.1599  0.3306 -0.0841
   42TAL   C205 5506   5.584  -1.497   3.600  0.1791  0.0231  0.2994
   42TAL   C206 5507   5.736  -1.478   3.585  0.0457 -0.8928  0.0382
   42TAL   C207 5508   5.818  -1.473   3.716 -0.8757  0.4927 -0.2951
   42TAL   C208 5509   5.807  -1.351   3.805 -1.2855 -0.2572  0.1023
   42TAL   C209 5510   5.841  -1.390   3.951 -0.0068  0.8861 -0.5012
   42TAL   C210 5511   5.807  -1.275   4.045 -0.1733  0.4337  0.7860
   43HTM   C211 5512   5.485  -1.568   3.906  0.3095 -0.0443 -0.3223
   43HTM   C212 5513   5.489  -1.696   3.862  0.6723 -0.1128 -0.0998
   43HTM   C213 5514   5.526  -1.792   3.963  0.6757  0.1354  0.1343
   43HTM   C214 5515   5.550  -1.736   4.085  0.3151  0.3936  0.0907
   43HTM    S22 5516   5.529  -1.557   4.081 -0.0596  0.3424 -0.2523
   44TAL   C215 5517   5.537  -1.933   3.929  0.1287  0.2458  0.1150
   44TAL   C216 5518   5.663  -1.989   3.855  0.5225 -0.9229 -0.1706
   44TAL   C217 5519   5.801  -1.988   3.915 -0.1966 -0.4070 -0.6480
   44TAL   C218 5520   5.889  -1.874   3.875  0.1636  0.0326 -0.7232
   44TAL   C219 5521   6.021  -1.858   3.945 -0.8646  0.3586  0.0406
   44TAL   C220 5522   6.091  -1.738   3.896 -0.0631 -0.3591  0.0066
   45HTM   C221 5523   5.613  -1.801   4.204 -0.2169  0.0506  0.2591
   45HTM   C222 5524   5.736  -1.753   4.240 -0.2413  0.2112  0.1261
   45HTM   C223 5525   5.822  -1.852   4.298  0.0143  0.2849 -0.1283
   45HTM   C224 5526   5.766  -1.976   4.306  0.2340  0.1803 -0.1893
   45HTM    S23 5527   5.598  -1.977   4.242  0.1338 -0.0207  0.0717
   46TAL   C225 5528   5.971  -1.824   4.313 -0.1216 -0.0609 -0.2609
   46TAL   C226 5529   6.012  -1.678   4.284  0.1009 -0.0071 -0.4034
   46TAL   C227 5530   6.152  -1.653   4.322 -0.2673 -0.4133 -0.2665
   46TAL   C228 5531   6.199  -1.500   4.312  0.0478  0.1718  0.7920
   46TAL   C229 5532   6.357  -1.486   4.293  0.0514 -0.0204 -0.2545
   46TAL   C230 5533   6.409  -1.347   4.299 -0.1761  0.3452  0.4295
   47HTM   C231 5534   5.803  -2.104   4.361  0.2120  0.1241 -0.0076
   47HTM   C232 5535   5.748  -2.226   4.337  0.2959  0.1397 -0.2787
   47HTM   C233 5536   5.816  -2.334   4.403  0.2630  0.0589 -0.3765
   47HTM   C234 5537   5.922  -2.295   4.479  0.1539 -0.0186 -0.1797
   47HTM    S24 5538   5.946  -2.116   4.471  0.0833  0.0051  0.1470
   48TAL   C235 5539   5.784  -2.483   4.376  0.0287 -0.0470 -0.6018
   48TAL   C236 5540   5.837  -2.609   4.447 -0.2429 -0.0757 -0.6345
   48TAL   C237 5541   5.801  -2.626   4.593 -0.5282 -0.4715  0.1910
   48TAL   C238 5542   5.649  -2.642   4.621 -0.1557 -0.3362  0.0312
   48TAL   C239 5543   5.596  -2.568   4.746  0.1190 -0.2147  0.2967
   48TAL   C240 5544   5.631  -2.419   4.759 -0.1617 -0.1104  0.1646
    1HTM     C1 5545   2.746   7.011   7.911  0.2531  0.1876  0.0047
    1HTM     C2 5546   2.815   7.110   7.974  0.2551  0.2711 -0.1278
    1HTM     C3 5547   2.748   7.237   7.975  0.1816  0.2320 -0.1516
    1HTM     C4 5548   2.627   7.235   7.912  0.1238  0.1193 -0.0373
    1HTM     S1 5549   2.588   7.071   7.847  0.1576  0.0525  0.1105
    2TAL     C5 5550   2.821   7.346   8.047  0.0996 -0.0427  0.5500
    2TAL     C6 5551   2.780   7.493   8.028 -0.1778 -0.1846 -0.8297
    2TAL     C7 5552   2.861   7.579   8.126  0.8183 -0.0202  0.3666
    2TAL     C8 5553   3.007   7.565   8.145  0.1238  0.6543 -0.2069
    2TAL     C9 5554   3.045   7.682   8.241  0.0342 -0.3780 -0.1603
    2TAL    C10 5555   3.184   7.668   8.296  0.5231 -0.0756 -1.0968
    3HTM    C11 5556   2.525   7.340   7.889 -0.0664 -0.0811 -0.4983
    3HTM    C12 5557   2.416   7.368   7.966 -0.0830 -0.2253 -0.4692
    3HTM    C13 5558   2.334   7.476   7.915 -0.1445 -0.2177 -0.3564
    3HTM    C14 5559   2.381   7.529   7.799 -0.1750 -0.0681 -0.2997
    3HTM     S2 5560   2.533   7.448   7.745 -0.1279  0.0761 -0.3850
    4TAL    C15 5561   2.204   7.506   7.986  0.2937  0.0500  0.2240
    4TAL    C16 5562   2.084   7.588   7.933  0.3051 -0.4861 -0.1835
    4TAL    C17 5563   2.025   7.532   7.810 -0.1030 -0.3133  0.1128
    4TAL    C18 5564   1.903   7.603   7.746 -0.0176  0.3684 -0.4991
    4TAL    C19 5565   1.910   7.757   7.731 -0.1792  0.1701 -1.3538
    4TAL    C20 5566   1.795   7.828   7.670 -0.3174 -0.5986 -0.0549
    5HTM    C21 5567   2.335   7.630   7.716 -0.3876  0.1081 -0.0696
    5HTM    C22 5568   2.285   7.627   7.589 -0.6571  0.2584  0.0310
    5HTM    C23 5569   2.241   7.755   7.541 -0.5953  0.3481  0.2129
    5HTM    C24 5570   2.257   7.856   7.631 -0.2790  0.2659  0.2513
    5HTM     S3 5571   2.329   7.796   7.785 -0.0324  0.0676  0.0586
    6TAL    C25 5572   2.184   7.765   7.404 -0.2945 -0.1216  0.3207
    6TAL    C26 5573   2.286   7.787   7.285  0.3169  0.5739 -0.4951
    6TAL    C27 5574   2.229   7.828   7.151  0.4026  0.3825  0.9615
    6TAL    C28 5575   2.128   7.943   7.140  0.7615  0.3954  0.4090
    6TAL    C29 5576   2.151   8.078   7.209 -0.0539  0.9556  0.2023
    6TAL    C30 5577   2.047   8.178   7.161  0.6714 -0.3047 -0.4312
    7HTM    C31 5578   2.201   7.993   7.631 -0.3529 -0.4599 -0.0647
    7HTM    C32 5579   2.233   8.097   7.549 -0.2236 -0.6204 -0.2186
    7HTM    C33 5580   2.195   8.226   7.601 -0.0077 -0.4907 -0.3791
    7HTM    C34 5581   2.133   8.220   7.722  0.0277 -0.2308 -0.3477
    7HTM     S4 5582   2.119   8.050   7.781 -0.2106 -0.1297 -0.1114
    8TAL    C35 5583   2.235   8.351   7.518  0.5563 -0.4444 -0.5104
    8TAL    C36 5584   2.161   8.489   7.519 -0.1821 -0.8272  0.0596
    8TAL    C37 5585   2.013   8.493   7.475 -0.2814  0.2978 -1.0046
    8TAL    C38 5586   1.940   8.620   7.501 -0.1485  0.1976 -0.7059
    8TAL    C39 5587   1.787   8.607   7.494  0.6596  0.2363  0.5053
    8TAL    C40 5588   1.721   8.739   7.524 -0.2396 -0.0680  0.5435
    9HTM    C41 5589   2.095   8.325   7.812  0.1171 -0.0234 -0.1508
    9HTM    C42 5590   1.974   8.344   7.871  0.0656  0.0029 -0.2627
    9HTM    C43 5591   1.973   8.452   7.967  0.0346 -0.0806 -0.1686
    9HTM    C44 5592   2.093   8.515   7.980  0.0625 -0.1699  0.0154
    9HTM     S5 5593   2.218   8.443   7.872  0.1305 -0.1559  0.0845
   10TAL    C45 5594   1.845   8.492   8.038 -1.3350  0.6929 -0.3707
   10TAL    C46 5595   1.769   8.377   8.104 -0.6760 -0.0900  0.2848
   10TAL    C47 5596   1.807   8.348   8.252  0.8792  0.1118  0.5786
   10TAL    C48 5597   1.944   8.301   8.287 -0.4578  0.4555 -0.3205
   10TAL    C49 5598   1.966   8.159   8.239  0.0595  0.5077 -0.4833
   10TAL    C50 5599   2.110   8.112   8.250  0.1092 -0.3063 -0.3147
   11HTM    C51 5600   2.134   8.622   8.066 -0.1244 -0.1386  0.1846
   11HTM    C52 5601   2.240   8.616   8.151  0.0702 -0.1183 -0.0553
   11HTM    C53 5602   2.252   8.731   8.237  0.4228  0.0272 -0.2952
   11HTM    C54 5603   2.154   8.825   8.217  0.4973  0.1164 -0.2387
   11HTM     S6 5604   2.040   8.775   8.087  0.1248  0.0241  0.1247
   12TAL    C55 5605   2.359   8.742   8.347  0.5155  0.4060  0.8389
   12TAL    C56 5606   2.470   8.839   8.312  0.1290 -0.4168 -0.2215
   12TAL    C57 5607   2.542   8.812   8.182  0.2495  0.2326 -0.2894
   12TAL    C58 5608   2.659   8.900   8.123 -0.5378 -0.1236 -0.7136
   12TAL    C59 5609   2.620   9.010   8.026  0.0586  0.4867  0.1999
   12TAL    C60 5610   2.746   9.062   7.974  0.0793  0.1526  0.1123
   13HTM    C61 5611   2.134   8.951   8.281 -0.2093 -0.1440  0.1763
   13HTM    C62 5612   2.048   8.986   8.381 -0.2351 -0.0758  0.1311
   13HTM    C63 5613   2.027   9.128   8.393 -0.2964 -0.0720 -0.0181
   13HTM    C64 5614   2.097   9.202   8.302 -0.3176 -0.1372 -0.0868
   13HTM     S7 5615   2.196   9.096   8.194 -0.2611 -0.2085  0.0328
   14TAL    C65 5616   1.941   9.196   8.505  0.5953 -0.3292  0.1113
   14TAL    C66 5617   1.857   9.119   8.607 -0.5860 -0.1514 -0.9603
   14TAL    C67 5618   1.927   9.044   8.718  0.0357 -0.1044 -0.1070
   14TAL    C68 5619   1.837   8.967   8.810  0.0184 -0.3259 -0.0497
   14TAL    C69 5620   1.898   8.885   8.925  0.2000 -0.6859  0.1911
   14TAL    C70 5621   2.020   8.803   8.913 -0.7720  0.7204  0.2177
   15HTM    C71 5622   2.124   9.341   8.284  0.0875 -0.1261 -0.3506
   15HTM    C72 5623   2.225   9.417   8.333 -0.0945 -0.0323 -0.1183
   15HTM    C73 5624   2.223   9.554   8.287 -0.3638  0.0787  0.2193
   15HTM    C74 5625   2.119   9.581   8.202 -0.3870  0.0694  0.2448
   15HTM     S8 5626   2.016   9.436   8.175 -0.0682 -0.0813 -0.1585
   16TAL    C75 5627   2.332   9.651   8.333  0.4242  0.3610  0.1281
   16TAL    C76 5628   2.476   9.614   8.296  0.2793  0.8229  0.1706
   16TAL    C77 5629   2.514   9.566   8.154  0.3654 -0.1558 -0.7347
   16TAL    C78 5630   2.473   9.660   8.039  0.2524  0.2514 -0.3166
   16TAL    C79 5631   2.578   9.775   8.027  0.2262  0.1128  0.2592
   16TAL    C80 5632   2.522   9.888   7.937  0.6977 -0.4971 -0.1452
   17HTM    C81 5633   2.067   9.705   8.136 -0.2131  0.1499 -0.3380
   17HTM    C82 5634   1.937   9.736   8.106 -0.3032  0.3909  0.2742
   17HTM    C83 5635   1.919   9.870   8.057 -0.3403  0.5423  0.6995
   17HTM    C84 5636   2.035   9.942   8.050 -0.2785  0.4167  0.4118
   17HTM     S9 5637   2.177   9.845   8.105 -0.1676  0.0950 -0.4257
   18TAL    C85 5638   1.778   9.908   8.015 -0.3222 -0.1266  0.0042
   18TAL    C86 5639   1.686   9.938   8.132 -0.1142 -0.2453 -0.0058
   18TAL    C87 5640   1.563  10.009   8.091 -0.6900  0.0633  0.0490
   18TAL    C88 5641   1.476  10.023   8.215 -0.4614  0.3308 -0.3373
   18TAL    C89 5642   1.334  10.087   8.191 -0.0205 -0.4829 -0.0956
   18TAL    C90 5643   1.246  10.030   8.085  0.1960  0.1238 -0.0701
   19HTM    C91 5644   2.066  10.082   8.016  0.7071  0.1335  0.1408
   19HTM    C92 5645   2.188  10.142   8.026  0.3828  0.7322  0.6161
   19HTM    C93 5646   2.186  10.284   8.003 -0.2465  0.7502  0.7782
   19HTM    C94 5647   2.061  10.333   7.975 -0.4019  0.1651  0.4256
   19HTM    S10 5648   1.937  10.202   7.976  0.2394 -0.4587 -0.1418
   20TAL    C95 5649   2.314  10.360   8.015  0.1587 -0.2478  0.2525
   20TAL    C96 5650   2.360  10.388   8.161 -0.3445 -0.2400  0.3679
   20TAL    C97 5651   2.266  10.465   8.257 -0.0529 -0.3789  0.4148
   20TAL    C98 5652   2.346  10.514   8.377 -0.5149  0.5408 -0.5490
   20TAL    C99 5653   2.262  10.570   8.493 -0.5381  0.0806  0.0994
   20TAL   C100 5654   2.337  10.635   8.606 -0.8336  0.2458  0.1468
   21HTM   C101 5655   2.013  10.472   7.974  0.1342  0.1048  0.5844
   21HTM   C102 5656   1.883  10.509   7.960  0.1240  0.2152  0.9506
   21HTM   C103 5657   1.863  10.651   7.950  0.2348  0.2213  0.8144
   21HTM   C104 5658   1.979  10.723   7.956  0.3297  0.1154  0.3449
   21HTM    S11 5659   2.122  10.616   7.976  0.2857 -0.0009  0.0356
   22TAL   C105 5660   1.728  10.709   7.937  0.5389  0.5590 -0.0397
   22TAL   C106 5661   1.652  10.708   8.069  0.0398  0.0693  0.2501
   22TAL   C107 5662   1.524  10.790   8.054 -0.1620  0.0601 -0.0842
   22TAL   C108 5663   1.543  10.947   8.087  0.3234  0.4046 -0.4297
   22TAL   C109 5664   1.408  11.017   8.072  0.2137 -0.7417  0.7214
   22TAL   C110 5665   1.411  11.163   8.104  0.9684  0.3185  0.5580
   23HTM   C111 5666   1.999  10.863   7.986  0.2020  0.2261  0.1687
   23HTM   C112 5667   2.099  10.918   8.060  0.0955  0.4883  0.1178
   23HTM   C113 5668   2.091  11.062   8.069 -0.1533  0.4872 -0.0558
   23HTM   C114 5669   1.986  11.116   8.002 -0.2366  0.2240 -0.1374
   23HTM    S12 5670   1.887  10.988   7.921 -0.0054 -0.0446  0.0007
   24TAL   C115 5671   2.210  11.130   8.133 -0.4612 -0.1141  0.6321
   24TAL   C116 5672   2.195  11.208   8.261  0.4505  0.6994 -0.4506
   24TAL   C117 5673   2.175  11.108   8.378  0.5239 -0.8753 -0.1162
   24TAL   C118 5674   2.140  11.184   8.505 -0.6647  0.1043 -0.1181
   24TAL   C119 5675   2.127  11.101   8.633  0.3353 -0.4886  0.0002
   24TAL   C120 5676   2.102  11.185   8.758 -0.5206  0.0743  0.5492
   25HTM   C121 5677   1.936  11.253   7.987 -0.0406 -0.2149 -0.2792
   25HTM   C122 5678   1.808  11.300   7.985 -0.1004 -0.3830 -0.4268
   25HTM   C123 5679   1.799  11.443   7.992 -0.2978 -0.3963 -0.4070
   25HTM   C124 5680   1.920  11.506   7.999 -0.3885 -0.2380 -0.2449
   25HTM    S13 5681   2.056  11.387   7.998 -0.2303 -0.0588 -0.1028
   26TAL   C125 5682   1.659  11.513   7.996 -0.4018  0.3420 -0.6111
   26TAL   C126 5683   1.599  11.506   8.142 -0.0437  0.0158 -0.1352
   26TAL   C127 5684   1.665  11.578   8.260  0.7456  0.3539 -0.5570
   26TAL   C128 5685   1.667  11.728   8.237 -0.2827  0.1801 -0.3513
   26TAL   C129 5686   1.725  11.805   8.346  0.4477 -0.3031 -0.3708
   26TAL   C130 5687   1.748  11.943   8.302 -0.0219 -0.4419 -0.1583
   27HTM   C131 5688   1.946  11.648   8.005  0.4494 -0.0541 -0.3108
   27HTM   C132 5689   2.019  11.718   8.097  0.3493 -0.0755 -0.2151
   27HTM   C133 5690   2.013  11.861   8.080 -0.1189 -0.0443  0.1798
   27HTM   C134 5691   1.936  11.900   7.975 -0.3756  0.0009  0.3846
   27HTM    S14 5692   1.863  11.759   7.888 -0.0436  0.0074  0.0929
   28TAL   C135 5693   2.088  11.953   8.173 -0.0774 -0.1837  0.5731
   28TAL   C136 5694   2.238  11.930   8.185  0.0061  0.0862  0.0505
   28TAL   C137 5695   2.329  11.971   8.069 -0.2000 -0.4664  0.0493
   28TAL   C138 5696   2.472  11.928   8.097 -0.5420 -0.5558 -0.3234
   28TAL   C139 5697   2.568  11.976   7.990  0.0884 -0.3560 -0.5446
   28TAL   C140 5698   2.712  11.955   8.024 -0.1500 -0.0197  0.2880
   29HTM   C141 5699   1.901  12.031   7.922 -0.3940  0.0237 -0.2112
   29HTM   C142 5700   1.916  12.074   7.793 -0.2564 -0.0904 -0.2337
   29HTM   C143 5701   1.893  12.215   7.776  0.0954 -0.0421 -0.3247
   29HTM   C144 5702   1.860  12.279   7.892  0.2261  0.1090 -0.3717
   29HTM    S15 5703   1.856  12.166   8.032 -0.0876  0.2027 -0.3040
   30TAL   C145 5704   1.894  12.276   7.638  0.4026  0.0948  0.1240
   30TAL   C146 5705   1.796  12.232   7.522 -0.0595 -0.9718  0.3890
   30TAL   C147 5706   1.649  12.210   7.565  0.4747  0.4250  0.0767
   30TAL   C148 5707   1.591  12.311   7.665 -0.0521 -0.2459  0.7742
   30TAL   C149 5708   1.585  12.453   7.616 -0.6664  0.1294  0.2723
   30TAL   C150 5709   1.506  12.519   7.728 -0.1140  0.3370  0.5250
   31HTM   C151 5710   1.854  12.422   7.917 -0.2987 -0.4311 -0.3865
   31HTM   C152 5711   1.940  12.525   7.892 -0.1439 -0.6052 -0.5786
   31HTM   C153 5712   1.888  12.654   7.931  0.3059 -0.5287 -0.2327
   31HTM   C154 5713   1.764  12.649   7.986  0.4941 -0.2962  0.2228
   31HTM    S16 5714   1.701  12.480   7.992  0.1149 -0.1549  0.2510
   32TAL   C155 5715   1.960  12.790   7.910  0.1927 -0.6653 -0.1553
   32TAL   C156 5716   2.112  12.781   7.906 -0.7021 -0.2878  0.1915
   32TAL   C157 5717   2.202  12.912   7.902 -0.2849  0.1636  0.1132
   32TAL   C158 5718   2.192  13.016   8.020  0.1203  0.4264  0.2208
   32TAL   C159 5719   2.073  13.107   8.035 -0.3171  0.0743  0.2042
   32TAL   C160 5720   2.016  13.167   7.906 -0.2566  0.0085  0.1080
   33HTM   C161 5721   1.671  12.754   8.031 -0.2175  0.0995 -0.0607
   33HTM   C162 5722   1.536  12.737   8.041 -0.2114  0.1460  0.1159
   33HTM   C163 5723   1.469  12.844   8.110 -0.0504  0.0359  0.4406
   33HTM   C164 5724   1.553  12.942   8.154  0.0661 -0.0947  0.5123
   33HTM    S17 5725   1.724  12.907   8.111 -0.0190 -0.0888  0.1716
   34TAL   C165 5726   1.320  12.838   8.124  0.3209  0.2067 -0.5417
   34TAL   C166 5727   1.287  12.750   8.242 -0.2612 -0.0326  0.2976
   34TAL   C167 5728   1.145  12.793   8.285 -0.3325 -0.6406  0.3187
   34TAL   C168 5729   1.077  12.716   8.404 -0.5899 -0.0028 -0.7354
   34TAL   C169 5730   0.950  12.780   8.467  0.9451 -0.0533 -0.5025
   34TAL   C170 5731   0.844  12.677   8.507  0.5575  0.9843 -0.5809
   35HTM   C171 5732   1.542  13.049   8.252  0.3343  0.1560 -0.1505
   35HTM   C172 5733   1.427  13.075   8.322  0.1805 -0.0196 -0.3347
   35HTM   C173 5734   1.440  13.186   8.414 -0.1093 -0.0596 -0.2465
   35HTM   C174 5735   1.563  13.243   8.414 -0.1766  0.0848  0.0048
   35HTM    S18 5736   1.674  13.163   8.297  0.1232  0.2850  0.1497
   36TAL   C175 5737   1.331  13.209   8.513  0.1179 -0.4233 -0.5207
   36TAL   C176 5738   1.216  13.303   8.468 -0.2011  0.2023  0.7006
   36TAL   C177 5739   1.095  13.315   8.571  0.2352 -0.6876  0.2351
   36TAL   C178 5740   1.126  13.359   8.714 -0.6762  0.1548 -0.3674
   36TAL   C179 5741   1.206  13.492   8.739  0.2193  0.3872 -0.3634
   36TAL   C180 5742   1.126  13.618   8.699 -0.3718 -0.3611  0.0416
   37HTM   C181 5743   1.624  13.350   8.496  0.0250  0.4906  0.0772
   37HTM   C182 5744   1.559  13.445   8.569  0.0503  0.6692 -0.1297
   37HTM   C183 5745   1.648  13.542   8.629  0.1071  0.5741 -0.0577
   37HTM   C184 5746   1.779  13.522   8.600  0.1251  0.3225  0.2041
   37HTM    S19 5747   1.802  13.376   8.495  0.0713  0.1857  0.3818
   38TAL   C185 5748   1.597  13.654   8.724 -0.1935  0.1631 -0.0863
   38TAL   C186 5749   1.474  13.728   8.684 -0.0894 -0.0689 -0.1836
   38TAL   C187 5750   1.476  13.807   8.559 -0.4223 -0.2830 -0.8818
   38TAL   C188 5751   1.590  13.904   8.532 -0.2172 -0.1846  0.4419
   38TAL   C189 5752   1.595  13.970   8.389  0.3853 -0.1660  0.0354
   38TAL   C190 5753   1.467  14.048   8.354  0.1314  0.0183  0.0473
   39HTM   C191 5754   1.898  13.590   8.635 -0.1808 -0.0742 -0.0103
   39HTM   C192 5755   2.025  13.542   8.632 -0.2136 -0.1526 -0.2141
   39HTM   C193 5756   2.124  13.639   8.672 -0.0986 -0.2377 -0.2913
   39HTM   C194 5757   2.072  13.760   8.705  0.0218 -0.2247 -0.1465
   39HTM    S20 5758   1.892  13.762   8.688 -0.0008 -0.1026  0.1011
   40TAL   C195 5759   2.275  13.612   8.677 -0.6225 -0.4951  0.3009
   40TAL   C196 5760   2.332  13.470   8.677 -0.5978 -0.1424  0.6280
   40TAL   C197 5761   2.486  13.467   8.666  0.4252  0.1169 -0.0221
   40TAL   C198 5762   2.530  13.322   8.665  0.4118 -0.1765  0.2917
   40TAL   C199 5763   2.678  13.327   8.663  0.6367 -0.1028 -0.2225
   40TAL   C200 5764   2.717  13.179   8.690 -0.1730  0.1430  0.0852
   41HTM   C201 5765   2.127  13.889   8.749 -0.1311 -0.0548  0.4855
   41HTM   C202 5766   2.249  13.917   8.802 -0.1193  0.0877  0.3843
   41HTM   C203 5767   2.263  14.053   8.847 -0.1013  0.2153 -0.0033
   41HTM   C204 5768   2.151  14.129   8.828 -0.0993  0.1694 -0.1972
   41HTM    S21 5769   2.019  14.033   8.751 -0.1201 -0.0390  0.0965
   42TAL   C205 5770   2.397  14.101   8.902 -0.7150  0.1369 -0.0660
   42TAL   C206 5771   2.414  14.059   9.048 -0.2861 -0.2397  0.1596
   42TAL   C207 5772   2.557  14.091   9.100 -0.1286 -0.1822  0.3697
   42TAL   C208 5773   2.552  14.134   9.248 -0.2611 -0.1652 -0.0826
   42TAL   C209 5774   2.679  14.148   9.322 -0.1194 -0.0891  0.2971
   42TAL   C210 5775   2.769  14.024   9.337 -0.6548  0.1695  0.5444
   43HTM   C211 5776   2.135  14.276   8.842  0.0309  0.3896  0.3008
   43HTM   C212 5777   2.033  14.350   8.895  0.2716  0.5531  0.5341
   43HTM   C213 5778   2.061  14.491   8.900  0.5255  0.5047  0.5093
   43HTM   C214 5779   2.184  14.525   8.850  0.4783  0.3043  0.2569
   43HTM    S22 5780   2.274  14.379   8.793  0.1065  0.1606  0.0296
   44TAL   C215 5781   1.949  14.583   8.958 -0.5885 -0.1652  0.3620
   44TAL   C216 5782   1.939  14.600   9.110 -0.1134 -0.9580 -0.2778
   44TAL   C217 5783   1.822  14.685   9.150  0.1347  0.0383 -0.1373
   44TAL   C218 5784   1.836  14.839   9.151 -0.1808  0.3296  0.6675
   44TAL   C219 5785   1.923  14.910   9.051 -0.4496  0.3010 -0.2802
   44TAL   C220 5786   1.936  15.055   9.071 -0.0585 -0.0979 -0.2107
   45HTM   C221 5787   2.235  14.656   8.818 -0.0224 -0.1085 -0.1198
   45HTM   C222 5788   2.365  14.682   8.785 -0.0314 -0.1659 -0.2017
   45HTM   C223 5789   2.384  14.812   8.726  0.0117 -0.1125 -0.0715
   45HTM   C224 5790   2.269  14.885   8.714  0.0532 -0.0145  0.1109
   45HTM    S23 5791   2.126  14.793   8.776  0.0412  0.0182  0.1317
   46TAL   C225 5792   2.521  14.860   8.673 -0.3717 -0.4329 -0.4910
   46TAL   C226 5793   2.576  14.783   8.551 -0.2304  0.1465  0.4426
   46TAL   C227 5794   2.487  14.778   8.424 -0.4108  0.4581 -0.0676
   46TAL   C228 5795   2.361  14.692   8.418 -0.4985 -0.2655 -0.1552
   46TAL   C229 5796   2.375  14.544   8.448 -0.5296  0.1243 -0.1079
   46TAL   C230 5797   2.243  14.470   8.435 -0.9134  0.2818 -0.1182
   47HTM   C231 5798   2.248  15.017   8.659  0.2611 -0.0750 -0.1534
   47HTM   C232 5799   2.181  15.120   8.718  0.2201 -0.0756 -0.1979
   47HTM   C233 5800   2.161  15.233   8.632  0.0765 -0.1657 -0.2818
   47HTM   C234 5801   2.213  15.217   8.507  0.0077 -0.2336 -0.3015
   47HTM    S24 5802   2.291  15.056   8.489  0.1201 -0.1888 -0.2144
   48TAL   C235 5803   2.085  15.349   8.694  0.3434  0.7935 -0.5483
   48TAL   C236 5804   2.098  15.483   8.618 -0.1004 -0.3581 -0.9427
   48TAL   C237 5805   2.026  15.596   8.692  0.4536  0.1001 -0.2683
   48TAL   C238 5806   2.041  15.730   8.630  0.1589  1.0793  0.0622
   48TAL   C239 5807   2.170  15.801   8.666 -0.7713  0.4333  0.0513
   48TAL   C240 5808   2.199  15.924   8.575  0.4845  0.2720 -0.5774
    1HTM     C1 5809   6.517   3.001   6.817 -0.0446 -0.0562 -0.2041
    1HTM     C2 5810   6.649   3.032   6.809 -0.0210 -0.0600  0.1223
    1HTM     C3 5811   6.674   3.171   6.776  0.0656 -0.0248  0.3359
    1HTM     C4 5812   6.560   3.244   6.760  0.1077  0.0058  0.1723
    1HTM     S1 5813   6.412   3.144   6.785  0.0412 -0.0075 -0.2678
    2TAL     C5 5814   6.810   3.222   6.741 -0.2601  0.1585 -0.2918
    2TAL     C6 5815   6.924   3.166   6.822 -0.4907  0.1982  0.5700
    2TAL     C7 5816   7.021   3.067   6.745 -0.3219 -0.2457 -0.3109
    2TAL     C8 5817   7.140   3.038   6.835 -0.8080 -0.2872 -0.4501
    2TAL     C9 5818   7.244   2.943   6.775 -0.0374 -0.5252 -0.0261
    2TAL    C10 5819   7.382   2.950   6.835  0.0619  0.2093  0.3548
    3HTM    C11 5820   6.539   3.384   6.729  0.0804 -0.0624 -0.2485
    3HTM    C12 5821   6.420   3.427   6.676  0.1845 -0.1009 -0.5171
    3HTM    C13 5822   6.420   3.567   6.642  0.2439 -0.1198 -0.5939
    3HTM    C14 5823   6.538   3.630   6.668  0.1848 -0.0955 -0.3835
    3HTM     S2 5824   6.660   3.518   6.739  0.0486 -0.0467 -0.0706
    4TAL    C15 5825   6.303   3.642   6.589  0.8970 -0.2238 -0.2416
    4TAL    C16 5826   6.180   3.560   6.549  0.9635  0.3621 -0.1507
    4TAL    C17 5827   6.055   3.629   6.494 -0.2121  0.0134  0.4082
    4TAL    C18 5828   5.941   3.542   6.449 -0.2536 -0.1126  0.3120
    4TAL    C19 5829   5.970   3.447   6.329 -0.4513  0.2560  0.2408
    4TAL    C20 5830   6.006   3.512   6.198  0.1117 -0.1057 -0.1353
    5HTM    C21 5831   6.569   3.769   6.655 -0.4661 -0.0546  0.0905
    5HTM    C22 5832   6.569   3.852   6.547 -0.6115 -0.0976  0.0577
    5HTM    C23 5833   6.621   3.983   6.574 -0.4458 -0.1308 -0.0975
    5HTM    C24 5834   6.660   4.001   6.703 -0.1735 -0.1130 -0.1826
    5HTM     S3 5835   6.635   3.852   6.801 -0.1054 -0.0524 -0.0728
    6TAL    C25 5836   6.604   4.096   6.471 -0.0336 -0.6278  0.8827
    6TAL    C26 5837   6.476   4.185   6.483  0.1138  0.1761  0.6082
    6TAL    C27 5838   6.466   4.308   6.396  0.5913 -0.6908  0.2205
    6TAL    C28 5839   6.352   4.401   6.424 -0.7815  0.0248 -0.1760
    6TAL    C29 5840   6.344   4.530   6.343 -0.0108 -0.2651 -0.5193
    6TAL    C30 5841   6.243   4.625   6.402  0.6552  0.1849  0.4304
    7HTM    C31 5842   6.726   4.113   6.773 -0.1612  0.0264  0.3238
    7HTM    C32 5843   6.860   4.137   6.778 -0.1934  0.1683  0.5383
    7HTM    C33 5844   6.894   4.263   6.837 -0.4437  0.4108  0.1726
    7HTM    C34 5845   6.787   4.336   6.878 -0.6024  0.4537 -0.3209
    7HTM     S4 5846   6.632   4.250   6.844 -0.4470  0.1896 -0.3620
    8TAL    C35 5847   7.038   4.311   6.840 -0.3348 -0.7304 -0.2577
    8TAL    C36 5848   7.156   4.225   6.898  0.0648  0.0706  0.3052
    8TAL    C37 5849   7.194   4.100   6.819  0.2447 -0.7486 -0.3834
    8TAL    C38 5850   7.340   4.051   6.844 -0.8327 -0.0917 -0.2150
    8TAL    C39 5851   7.369   3.913   6.779 -0.2681  0.3571  0.2761
    8TAL    C40 5852   7.507   3.854   6.811  0.1108  0.0366 -0.4815
    9HTM    C41 5853   6.784   4.465   6.935 -0.4207 -0.0468  0.3477
    9HTM    C42 5854   6.857   4.523   7.034 -0.5057  0.0381  0.3610
    9HTM    C43 5855   6.823   4.661   7.059 -0.3722  0.1247  0.0629
    9HTM    C44 5856   6.724   4.708   6.978 -0.1855  0.1060 -0.1774
    9HTM     S5 5857   6.666   4.581   6.864 -0.1641 -0.0230 -0.0451
   10TAL    C45 5858   6.898   4.735   7.167 -0.0959  0.0911 -0.4303
   10TAL    C46 5859   7.052   4.739   7.168 -0.1643  0.6589  0.2296
   10TAL    C47 5860   7.109   4.820   7.051 -0.0373 -0.4354  0.2828
   10TAL    C48 5861   7.256   4.845   7.039 -0.7395 -0.2180  0.4330
   10TAL    C49 5862   7.353   4.727   7.076  0.0103  0.1360  0.3451
   10TAL    C50 5863   7.329   4.606   6.997 -0.3952  0.8039  0.5280
   11HTM    C51 5864   6.671   4.843   6.967  0.0590 -0.0308  0.2899
   11HTM    C52 5865   6.730   4.960   7.007  0.2570 -0.0494  0.0496
   11HTM    C53 5866   6.642   5.074   7.002  0.4625  0.0999 -0.2251
   11HTM    C54 5867   6.516   5.044   6.960  0.4213  0.2323 -0.1943
   11HTM     S6 5868   6.498   4.869   6.921  0.1172  0.1785  0.1870
   12TAL    C55 5869   6.690   5.209   7.060  0.4851 -0.0025 -0.2648
   12TAL    C56 5870   6.731   5.195   7.211 -0.8425 -0.5980  0.1031
   12TAL    C57 5871   6.804   5.313   7.282  0.6619  0.0157  0.0577
   12TAL    C58 5872   6.918   5.370   7.200  0.8347  0.5903 -0.2291
   12TAL    C59 5873   6.963   5.507   7.254  0.2571 -0.3455  0.6231
   12TAL    C60 5874   7.074   5.567   7.164  1.1369 -0.0191  0.3089
   13HTM    C61 5875   6.403   5.134   6.939  0.0824  0.1133 -0.0130
   13HTM    C62 5876   6.413   5.260   6.886  0.0196  0.1509  0.0639
   13HTM    C63 5877   6.287   5.329   6.877 -0.0153  0.0939  0.1073
   13HTM    C64 5878   6.181   5.257   6.923  0.0211  0.0126  0.0637
   13HTM     S7 5879   6.232   5.094   6.982  0.1028  0.0017 -0.0367
   14TAL    C65 5880   6.275   5.469   6.820  0.5072 -0.0350  0.4061
   14TAL    C66 5881   6.389   5.557   6.771  0.7503 -0.3210 -0.2750
   14TAL    C67 5882   6.497   5.587   6.871  0.2748  0.1631  0.1327
   14TAL    C68 5883   6.636   5.596   6.805  0.1173  0.6887  0.7338
   14TAL    C69 5884   6.751   5.562   6.892 -0.3724 -0.1620 -0.6504
   14TAL    C70 5885   6.874   5.545   6.807 -0.3605  0.4131  0.3318
   15HTM    C71 5886   6.040   5.289   6.922  0.3304  0.0766 -0.5466
   15HTM    C72 5887   5.939   5.198   6.927  0.5715 -0.2484 -1.4951
   15HTM    C73 5888   5.808   5.255   6.909  0.4838 -0.5414 -1.8132
   15HTM    C74 5889   5.810   5.391   6.891  0.1760 -0.4402 -1.1064
   15HTM     S8 5890   5.978   5.456   6.895 -0.0287  0.0367  0.0233
   16TAL    C75 5891   5.684   5.181   6.948  0.1029  0.0565 -0.3776
   16TAL    C76 5892   5.634   5.076   6.856 -0.1131 -0.0875  1.0895
   16TAL    C77 5893   5.496   5.023   6.895 -0.6701 -0.0068  0.2298
   16TAL    C78 5894   5.454   4.904   6.803  0.1818  0.5420  0.0381
   16TAL    C79 5895   5.317   4.848   6.840  0.7359  0.7192 -0.1666
   16TAL    C80 5896   5.287   4.730   6.738  0.5969 -0.1920  0.1432
   17HTM    C81 5897   5.707   5.497   6.874  0.1019 -0.1694 -0.3637
   17HTM    C82 5898   5.728   5.626   6.834 -0.1228 -0.2685 -0.8147
   17HTM    C83 5899   5.609   5.708   6.836 -0.1693 -0.3405 -0.6239
   17HTM    C84 5900   5.498   5.641   6.877  0.0201 -0.2962 -0.0269
   17HTM     S9 5901   5.534   5.469   6.917  0.2732 -0.1597  0.3430
   18TAL    C85 5902   5.635   5.858   6.804  0.1778  0.3097 -0.1787
   18TAL    C86 5903   5.522   5.944   6.754  0.0060  0.1249  0.0078
   18TAL    C87 5904   5.536   6.101   6.774 -0.2972  0.5077  0.7995
   18TAL    C88 5905   5.666   6.157   6.726 -0.5782  0.4753 -0.1724
   18TAL    C89 5906   5.682   6.310   6.742  0.3841  0.0173 -0.7861
   18TAL    C90 5907   5.801   6.380   6.675  0.4856  1.0539  0.4787
   19HTM    C91 5908   5.361   5.681   6.901 -0.1741  0.6188  0.3326
   19HTM    C92 5909   5.321   5.794   6.967 -0.7589  0.4902  0.2007
   19HTM    C93 5910   5.179   5.816   6.962 -0.8376 -0.0646 -0.1249
   19HTM    C94 5911   5.111   5.720   6.893 -0.3127 -0.3588 -0.2412
   19HTM    S10 5912   5.222   5.594   6.827  0.3265  0.0449  0.0541
   20TAL    C95 5913   5.117   5.933   7.038  0.2436  0.4112  0.5011
   20TAL    C96 5914   5.115   5.926   7.194  0.2488 -0.2001 -0.4851
   20TAL    C97 5915   5.037   6.026   7.265 -0.2208  0.3035  0.1669
   20TAL    C98 5916   4.883   6.028   7.238 -0.0647  0.0022 -0.0317
   20TAL    C99 5917   4.791   5.918   7.309 -0.2617 -0.1849  0.8085
   20TAL   C100 5918   4.780   5.790   7.225 -0.3818 -0.7572 -0.0931
   21HTM   C101 5919   4.967   5.705   6.869 -0.1420  0.0061 -0.1818
   21HTM   C102 5920   4.874   5.803   6.848 -0.1786 -0.0548 -0.3076
   21HTM   C103 5921   4.739   5.755   6.846 -0.1626 -0.1035 -0.2167
   21HTM   C104 5922   4.728   5.620   6.866 -0.1144 -0.0790 -0.0216
   21HTM    S11 5923   4.889   5.543   6.888 -0.0845  0.0077  0.0628
   22TAL   C105 5924   4.640   5.868   6.816  0.0525  0.4919  0.4751
   22TAL   C106 5925   4.615   5.973   6.930  0.0164 -1.0078  0.6494
   22TAL   C107 5926   4.490   5.970   7.019  0.6503  0.8359 -0.4490
   22TAL   C108 5927   4.353   5.944   6.951 -0.2617 -1.1230 -0.4402
   22TAL   C109 5928   4.303   6.025   6.829  0.1309  0.4538  0.4882
   22TAL   C110 5929   4.317   6.181   6.827 -0.4605  0.0134 -0.5494
   23HTM   C111 5930   4.603   5.542   6.862  0.1619 -0.1220 -0.2485
   23HTM   C112 5931   4.592   5.407   6.880 -0.0806 -0.1225 -0.3996
   23HTM   C113 5932   4.456   5.360   6.881 -0.1659  0.1180 -0.4687
   23HTM   C114 5933   4.363   5.458   6.865  0.0114  0.3020 -0.3704
   23HTM    S12 5934   4.441   5.620   6.846  0.3020  0.1843 -0.1820
   24TAL   C115 5935   4.418   5.214   6.885 -0.3002 -0.7379  0.1914
   24TAL   C116 5936   4.409   5.159   7.027  0.2887 -0.4247  0.0565
   24TAL   C117 5937   4.330   5.026   7.041  0.0255  0.1361  0.2874
   24TAL   C118 5938   4.189   5.034   6.995  0.5436  0.2856 -0.3609
   24TAL   C119 5939   4.108   4.908   6.996 -0.0152 -0.0861  0.0087
   24TAL   C120 5940   4.159   4.779   6.943  0.0430  0.0589  0.3594
   25HTM   C121 5941   4.217   5.457   6.857 -0.0329  0.0539  0.1422
   25HTM   C122 5942   4.135   5.352   6.887  0.1941 -0.1011  0.2232
   25HTM   C123 5943   3.996   5.388   6.898  0.1407 -0.3560  0.3984
   25HTM   C124 5944   3.972   5.520   6.876 -0.1268 -0.3958  0.4508
   25HTM    S13 5945   4.124   5.610   6.840 -0.3339 -0.1121  0.2824
   26TAL   C125 5946   3.890   5.285   6.944  0.1091 -0.0585 -0.6006
   26TAL   C126 5947   3.890   5.226   7.087  0.1815 -0.0724  0.3410
   26TAL   C127 5948   3.878   5.319   7.202 -0.2655 -0.0654  0.1056
   26TAL   C128 5949   3.758   5.419   7.198 -0.2721  0.0767  0.0055
   26TAL   C129 5950   3.791   5.532   7.295 -0.3807 -0.1705  0.2362
   26TAL   C130 5951   3.721   5.667   7.279 -0.6187 -0.2837  0.1734
   27HTM   C131 5952   3.846   5.593   6.890  0.0303  0.1566 -0.1631
   27HTM   C132 5953   3.720   5.556   6.855  0.0954  0.4382 -0.7000
   27HTM   C133 5954   3.620   5.655   6.886  0.1308  0.4988 -0.7751
   27HTM   C134 5955   3.670   5.767   6.946  0.0926  0.2632 -0.2961
   27HTM    S14 5956   3.849   5.756   6.967  0.0084 -0.0556  0.2924
   28TAL   C135 5957   3.475   5.635   6.846  0.1771  0.1125 -0.2677
   28TAL   C136 5958   3.387   5.577   6.962 -0.5464 -0.5808 -0.0747
   28TAL   C137 5959   3.256   5.522   6.914  0.0817  0.3165  0.5795
   28TAL   C138 5960   3.148   5.627   6.873 -0.4617  0.0160 -0.3586
   28TAL   C139 5961   3.011   5.579   6.834 -0.0309  0.2249  0.0135
   28TAL   C140 5962   3.008   5.468   6.729 -0.4334 -0.1025 -0.1003
   29HTM   C141 5963   3.599   5.888   7.000  0.0780 -0.1570  0.4563
   29HTM   C142 5964   3.465   5.912   7.009  0.0486 -0.3047  0.4220
   29HTM   C143 5965   3.433   6.045   7.053 -0.1122 -0.2728  0.2103
   29HTM   C144 5966   3.543   6.122   7.077 -0.2056 -0.1008  0.0835
   29HTM    S15 5967   3.696   6.032   7.046 -0.0966  0.0355  0.2223
   30TAL   C145 5968   3.291   6.088   7.070  0.1301 -0.0117 -0.1173
   30TAL   C146 5969   3.178   5.992   7.034  0.4136 -0.3103  0.5984
   30TAL   C147 5970   3.042   6.047   7.074  0.3179 -0.3652 -0.2619
   30TAL   C148 5971   2.934   5.945   7.051  0.1638 -0.1961 -0.3235
   30TAL   C149 5972   2.931   5.827   7.138  0.0121  0.1570 -0.4331
   30TAL   C150 5973   2.810   5.741   7.114  0.3635 -0.0700  0.2835
   31HTM   C151 5974   3.554   6.256   7.124  0.1184 -0.1817 -0.0763
   31HTM   C152 5975   3.485   6.366   7.082  0.1103 -0.1698 -0.0298
   31HTM   C153 5976   3.533   6.490   7.138  0.0687 -0.1948  0.0618
   31HTM   C154 5977   3.640   6.474   7.222  0.0452 -0.2261  0.0858
   31HTM    S16 5978   3.687   6.301   7.237  0.0742 -0.2262 -0.0067
   32TAL   C155 5979   3.471   6.629   7.115  0.1371  0.4452 -0.0278
   32TAL   C156 5980   3.327   6.640   7.152  0.5494 -0.5587  0.2169
   32TAL   C157 5981   3.265   6.775   7.112 -0.3506 -0.2753 -0.1722
   32TAL   C158 5982   3.326   6.904   7.171 -0.1444 -0.0387  0.2673
   32TAL   C159 5983   3.247   7.033   7.136  0.0755 -0.1117 -0.1797
   32TAL   C160 5984   3.318   7.151   7.199 -0.3270  0.1796  1.0931
   33HTM   C161 5985   3.732   6.574   7.266 -0.0627  0.0771  0.0032
   33HTM   C162 5986   3.726   6.711   7.271 -0.1693  0.0677  0.1411
   33HTM   C163 5987   3.850   6.773   7.308 -0.1888  0.1321  0.0987
   33HTM   C164 5988   3.951   6.684   7.332 -0.0970  0.1906 -0.0716
   33HTM    S17 5989   3.896   6.514   7.308  0.0221  0.1688 -0.1926
   34TAL   C165 5990   3.866   6.921   7.333  0.2997 -0.2358 -0.3478
   34TAL   C166 5991   3.764   7.017   7.264 -0.8348  0.0559 -0.5184
   34TAL   C167 5992   3.780   7.172   7.285  0.0484  0.0502 -0.1164
   34TAL   C168 5993   3.669   7.251   7.204  0.6974 -0.6931 -0.4049
   34TAL   C169 5994   3.702   7.400   7.218 -0.1195  0.6364  0.4594
   34TAL   C170 5995   3.611   7.474   7.126  0.2016  0.4978  0.8168
   35HTM   C171 5996   4.089   6.698   7.382  0.5046  0.2034 -0.1733
   35HTM   C172 5997   4.134   6.805   7.453  0.8345  0.2797 -0.4888
   35HTM   C173 5998   4.261   6.784   7.517  0.7174  0.0324 -0.3352
   35HTM   C174 5999   4.314   6.660   7.493  0.2987 -0.2320  0.0976
   35HTM    S18 6000   4.206   6.561   7.389  0.0172 -0.1895  0.3463
   36TAL   C175 6001   4.326   6.886   7.606 -0.1522  0.3187  0.5946
   36TAL   C176 6002   4.276   7.025   7.609  0.3589  0.1334 -0.1648
   36TAL   C177 6003   4.133   7.060   7.651  0.1710  0.1414 -0.3674
   36TAL   C178 6004   4.116   7.209   7.667  0.5655 -0.1794  0.8797
   36TAL   C179 6005   3.987   7.268   7.714 -0.1993  0.5561  0.3707
   36TAL   C180 6006   3.866   7.238   7.625 -0.2008 -0.8001 -0.0768
   37HTM   C181 6007   4.442   6.601   7.528 -0.2057 -0.2726 -0.1353
   37HTM   C182 6008   4.482   6.547   7.646 -0.4439  0.2894  0.2069
   37HTM   C183 6009   4.622   6.512   7.649 -0.3734  0.5939  0.7701
   37HTM   C184 6010   4.688   6.539   7.532 -0.0814  0.2641  0.8572
   37HTM    S19 6011   4.577   6.612   7.409  0.1286 -0.4620  0.2299
   38TAL   C185 6012   4.696   6.451   7.768 -0.4156  0.6580  0.2099
   38TAL   C186 6013   4.616   6.345   7.857 -0.3428 -0.3101  0.5746
   38TAL   C187 6014   4.577   6.200   7.808  0.0569 -0.6468 -0.1796
   38TAL   C188 6015   4.677   6.086   7.818 -0.4322 -0.3728  0.4278
   38TAL   C189 6016   4.817   6.106   7.760 -0.0118  0.0563  0.5299
   38TAL   C190 6017   4.833   6.124   7.611 -0.5699 -1.0434  0.3346
   39HTM   C191 6018   4.817   6.512   7.482 -0.2263  0.2494 -0.2428
   39HTM   C192 6019   4.928   6.588   7.507 -0.1051 -0.0525  0.1576
   39HTM   C193 6020   5.045   6.545   7.434  0.0396 -0.3612  0.5677
   39HTM   C194 6021   5.023   6.437   7.355  0.0290 -0.2951  0.4802
   39HTM    S20 6022   4.853   6.380   7.365 -0.1668  0.1663 -0.1316
   40TAL   C195 6023   5.176   6.623   7.446 -0.0574  0.9740  0.0322
   40TAL   C196 6024   5.240   6.680   7.314  0.9186  1.2250 -0.3869
   40TAL   C197 6025   5.389   6.711   7.324 -0.0608  0.2298 -0.1237
   40TAL   C198 6026   5.475   6.596   7.370 -0.3466  0.3491  0.0558
   40TAL   C199 6027   5.624   6.623   7.348  0.2555  0.0615 -0.0466
   40TAL   C200 6028   5.705   6.508   7.399 -0.2553 -0.5343 -0.6006
   41HTM   C201 6029   5.119   6.371   7.272  0.0676  0.1163  0.0012
   41HTM   C202 6030   5.119   6.371   7.136  0.0906  0.3150  0.0002
   41HTM   C203 6031   5.236   6.311   7.078  0.0651  0.3304 -0.0672
   41HTM   C204 6032   5.326   6.265   7.170  0.0228  0.1435 -0.1179
   41HTM    S21 6033   5.268   6.295   7.338  0.0112 -0.0682 -0.0839
   42TAL   C205 6034   5.247   6.315   6.926 -0.0242  0.6858  0.1058
   42TAL   C206 6035   5.293   6.451   6.868  0.7358  0.2390 -0.8291
   42TAL   C207 6036   5.433   6.512   6.902  0.0736 -0.2254 -0.4974
   42TAL   C208 6037   5.465   6.648   6.839 -0.8490 -0.5463 -0.0305
   42TAL   C209 6038   5.605   6.698   6.872  0.0555  0.6513  0.1519
   42TAL   C210 6039   5.600   6.770   7.014 -0.2371 -0.1293  0.3147
   43HTM   C211 6040   5.461   6.217   7.153  0.2011 -0.0930  0.4952
   43HTM   C212 6041   5.569   6.300   7.150  0.0618  0.0761 -0.0896
   43HTM   C213 6042   5.693   6.232   7.125  0.0510  0.2494 -0.6125
   43HTM   C214 6043   5.680   6.097   7.108  0.1827  0.2122 -0.4256
   43HTM    S22 6044   5.508   6.045   7.123  0.3314 -0.0459  0.4308
   44TAL   C215 6045   5.832   6.295   7.130 -0.2459 -0.5617  0.8491
   44TAL   C216 6046   5.845   6.442   7.081  0.3589 -0.1123 -0.2063
   44TAL   C217 6047   5.983   6.503   7.122 -0.1030  0.7430  0.3221
   44TAL   C218 6048   6.107   6.429   7.069  0.6234  0.2103 -0.0495
   44TAL   C219 6049   6.118   6.421   6.917 -0.2142 -0.1989 -0.7367
   44TAL   C220 6050   6.201   6.305   6.870  0.4352 -0.8207  0.6939
   45HTM   C221 6051   5.782   5.993   7.099  0.0443  0.1550  0.1206
   45HTM   C222 6052   5.903   5.995   7.035  0.1404  0.1802  0.3014
   45HTM   C223 6053   5.979   5.874   7.052  0.1020  0.1612  0.3414
   45HTM   C224 6054   5.917   5.780   7.128 -0.0234  0.1215  0.1917
   45HTM    S23 6055   5.756   5.837   7.186 -0.1038  0.1050 -0.0139
   46TAL   C225 6056   6.110   5.869   6.976 -0.3137  0.1811  1.0043
   46TAL   C226 6057   6.216   5.958   7.039 -0.0757  0.4002 -0.4322
   46TAL   C227 6058   6.342   5.975   6.958  0.0636 -0.8122  0.0921
   46TAL   C228 6059   6.444   6.066   7.038 -0.5081 -0.0523 -0.1197
   46TAL   C229 6060   6.583   6.045   6.983 -0.0727  0.4791 -0.0933
   46TAL   C230 6061   6.685   6.112   7.061  1.0308  0.0328  0.1445
   47HTM   C231 6062   5.977   5.658   7.185  0.3158 -0.1048  0.8955
   47HTM   C232 6063   6.101   5.602   7.171  0.3653 -0.0668  1.1756
   47HTM   C233 6064   6.124   5.490   7.258  0.0460 -0.3276  0.9289
   47HTM   C234 6065   6.018   5.460   7.339 -0.2469 -0.5646  0.4604
   47HTM    S24 6066   5.880   5.572   7.311 -0.1415 -0.4763  0.2936
   48TAL   C235 6067   6.252   5.415   7.264 -0.4435 -0.4583 -0.2892
   48TAL   C236 6068   6.376   5.483   7.207 -0.3088  0.3330  0.1656
   48TAL   C237 6069   6.432   5.589   7.289 -0.1820  0.2678 -0.2185
   48TAL   C238 6070   6.565   5.638   7.231 -0.1309 -0.4979  0.3023
   48TAL   C239 6071   6.637   5.743   7.315  0.7060 -0.1993 -0.3284
   48TAL   C240 6072   6.764   5.784   7.247  0.2137  0.1195  0.0055
    1HTM     C1 6073   6.404   3.260   2.334  0.0796  0.2718  0.2963
    1HTM     C2 6074   6.423   3.141   2.396  0.5612  0.4060  0.4082
    1HTM     C3 6075   6.375   3.137   2.531  0.5462  0.3258  0.4005
    1HTM     C4 6076   6.318   3.253   2.572  0.0536  0.1304  0.2829
    1HTM     S1 6077   6.321   3.378   2.443 -0.4338  0.0316  0.1718
    2TAL     C5 6078   6.374   3.006   2.615 -0.0093  0.3345  0.0458
    2TAL     C6 6079   6.454   2.890   2.560  0.0005  0.8679  0.0494
    2TAL     C7 6080   6.453   2.763   2.653  0.5776 -0.1640 -0.7283
    2TAL     C8 6081   6.543   2.644   2.616  0.2515 -0.5409 -0.1428
    2TAL     C9 6082   6.487   2.513   2.674  0.2321 -0.4168  0.5448
    2TAL    C10 6083   6.576   2.389   2.671 -0.4924 -0.2696 -0.0154
    3HTM    C11 6084   6.271   3.288   2.703  0.0522  0.3224  0.5513
    3HTM    C12 6085   6.323   3.252   2.824 -0.1786  0.2958  0.6430
    3HTM    C13 6086   6.256   3.313   2.936 -0.3686  0.3017  0.5268
    3HTM    C14 6087   6.153   3.395   2.901 -0.2819  0.3330  0.3465
    3HTM     S2 6088   6.133   3.402   2.722  0.0485  0.3576  0.3091
    4TAL    C15 6089   6.294   3.280   3.078  0.8479  0.2494  0.5828
    4TAL    C16 6090   6.440   3.309   3.122 -0.5385 -0.1661  0.0499
    4TAL    C17 6091   6.467   3.321   3.269 -0.4279  0.0720 -0.8790
    4TAL    C18 6092   6.415   3.202   3.355  0.1462  0.4019  0.1021
    4TAL    C19 6093   6.420   3.231   3.509 -0.2569  0.3585  0.3714
    4TAL    C20 6094   6.537   3.305   3.580  1.1746  0.3894  0.0412
    5HTM    C21 6095   6.070   3.486   2.975 -0.1649 -0.0780  0.1941
    5HTM    C22 6096   5.938   3.474   3.005 -0.1030  0.0763  0.5363
    5HTM    C23 6097   5.888   3.578   3.091  0.2055  0.2215  0.5391
    5HTM    C24 6098   5.983   3.669   3.127  0.3788  0.1779  0.1992
    5HTM     S3 6099   6.144   3.630   3.055  0.1648 -0.0516 -0.1538
    6TAL    C25 6100   5.735   3.576   3.109  0.0757  0.0809 -0.0624
    6TAL    C26 6101   5.659   3.700   3.083 -0.4588  0.1449  0.4472
    6TAL    C27 6102   5.512   3.695   3.116  0.2731  0.4543 -1.3442
    6TAL    C28 6103   5.434   3.563   3.106  0.2266 -0.4652  0.4808
    6TAL    C29 6104   5.285   3.583   3.125  0.0765 -0.3526  0.5199
    6TAL    C30 6105   5.203   3.459   3.124 -0.0885  0.1140 -0.1124
    7HTM    C31 6106   5.982   3.771   3.230 -0.2343 -0.1226  0.3212
    7HTM    C32 6107   5.884   3.810   3.317 -0.0696 -0.0727  0.4883
    7HTM    C33 6108   5.929   3.897   3.422  0.1023  0.1125  0.2613
    7HTM    C34 6109   6.062   3.925   3.416  0.0683  0.2037 -0.0789
    7HTM     S4 6110   6.141   3.843   3.276 -0.1852  0.0618 -0.1395
    8TAL    C35 6111   5.825   3.956   3.522 -0.2415 -0.7774  0.5705
    8TAL    C36 6112   5.798   3.872   3.651  0.1416  0.2372  0.0733
    8TAL    C37 6113   5.741   3.727   3.630  0.4373 -0.4832  0.2752
    8TAL    C38 6114   5.609   3.711   3.549  0.6787  0.2585 -0.4529
    8TAL    C39 6115   5.541   3.575   3.521  0.6276 -0.4846 -0.5540
    8TAL    C40 6116   5.631   3.468   3.470 -0.3456  0.2352  0.2640
    9HTM    C41 6117   6.153   3.996   3.503  0.1446 -0.1552 -0.4412
    9HTM    C42 6118   6.146   4.113   3.572 -0.1903 -0.0193 -0.7029
    9HTM    C43 6119   6.272   4.156   3.627 -0.4070  0.2089 -0.3793
    9HTM    C44 6120   6.376   4.071   3.599 -0.2374  0.2467  0.1292
    9HTM     S5 6121   6.321   3.930   3.501  0.2132 -0.0048  0.2398
   10TAL    C45 6122   6.278   4.278   3.721  0.0769  0.0145  0.0539
   10TAL    C46 6123   6.168   4.383   3.738 -0.0160 -0.5433  0.2291
   10TAL    C47 6124   6.028   4.337   3.784  0.2376  0.5372 -0.5291
   10TAL    C48 6125   5.919   4.439   3.774  0.2341 -0.1723  0.0179
   10TAL    C49 6126   5.786   4.389   3.804  0.4706  0.0186 -0.1855
   10TAL    C50 6127   5.732   4.283   3.722  0.1050  0.7594  0.7146
   11HTM    C51 6128   6.516   4.066   3.620 -0.3788  0.0576 -0.3889
   11HTM    C52 6129   6.587   3.974   3.691 -0.4544  0.0703 -0.2958
   11HTM    C53 6130   6.728   3.972   3.659 -0.3266  0.4339  0.2437
   11HTM    C54 6131   6.764   4.063   3.564 -0.1529  0.6986  0.5618
   11HTM     S6 6132   6.622   4.159   3.507 -0.1378  0.5073  0.2023
   12TAL    C55 6133   6.827   3.884   3.730 -0.4136  0.9059  0.0161
   12TAL    C56 6134   6.807   3.835   3.871  0.5184  0.2405 -0.3223
   12TAL    C57 6135   6.872   3.703   3.891 -0.5526  0.2898 -0.5540
   12TAL    C58 6136   6.840   3.583   3.795 -0.1266  0.4296 -0.1269
   12TAL    C59 6137   6.876   3.443   3.841 -0.1389  0.4725  0.2020
   12TAL    C60 6138   6.872   3.354   3.720  0.2716 -0.5482 -0.1119
   13HTM    C61 6139   6.890   4.083   3.504  0.0326  0.5808  0.1684
   13HTM    C62 6140   6.940   4.021   3.394 -0.1671  0.3359  0.2146
   13HTM    C63 6141   7.078   4.051   3.368 -0.0432 -0.2053  0.2457
   13HTM    C64 6142   7.134   4.135   3.459  0.2514 -0.3736  0.2233
   13HTM     S7 6143   7.015   4.185   3.585  0.3960  0.1430  0.1607
   14TAL    C65 6144   7.147   4.008   3.240 -0.0335 -0.4799  0.6368
   14TAL    C66 6145   7.204   3.863   3.252  0.3530 -0.6208  0.9794
   14TAL    C67 6146   7.294   3.819   3.139 -0.4932 -0.0262 -0.1087
   14TAL    C68 6147   7.361   3.691   3.163 -0.4456  0.3836  0.0737
   14TAL    C69 6148   7.275   3.567   3.168  0.1399 -0.6155  0.1968
   14TAL    C70 6149   7.352   3.438   3.215  0.7618 -0.5639  0.1955
   15HTM    C71 6150   7.271   4.171   3.490 -0.1270 -0.4754 -0.0986
   15HTM    C72 6151   7.320   4.287   3.540 -0.3977 -0.3610 -0.0939
   15HTM    C73 6152   7.464   4.290   3.547 -0.4086 -0.0675  0.0041
   15HTM    C74 6153   7.524   4.176   3.502 -0.1459  0.0418  0.0740
   15HTM     S8 6154   7.402   4.055   3.447  0.1375 -0.2197  0.0214
   16TAL    C75 6155   7.546   4.413   3.583  0.3450 -0.2778 -0.2618
   16TAL    C76 6156   7.489   4.540   3.643 -0.1555  0.0951 -0.5108
   16TAL    C77 6157   7.580   4.660   3.664 -0.0330 -0.6361 -0.4653
   16TAL    C78 6158   7.712   4.641   3.744  0.1012  0.1436  0.0534
   16TAL    C79 6159   7.773   4.771   3.787  0.5944 -0.1353 -0.3405
   16TAL    C80 6160   7.903   4.770   3.865  0.1507 -0.1885 -0.1382
   17HTM    C81 6161   7.662   4.141   3.500  0.2954 -0.0022  0.4239
   17HTM    C82 6162   7.730   4.065   3.591  0.4730  0.4900  0.7058
   17HTM    C83 6163   7.872   4.060   3.568  0.4561  0.5503  0.5870
   17HTM    C84 6164   7.913   4.133   3.460  0.2655  0.1039  0.2146
   17HTM     S9 6165   7.774   4.213   3.378  0.0916 -0.4315 -0.0168
   18TAL    C85 6166   7.972   3.972   3.644  0.4547  0.1676 -0.2679
   18TAL    C86 6167   7.933   3.877   3.761  0.3126  0.2286  0.1915
   18TAL    C87 6168   8.052   3.810   3.831 -0.4076 -1.1676  0.2588
   18TAL    C88 6169   8.135   3.701   3.757 -0.5445  0.3706  0.4146
   18TAL    C89 6170   8.041   3.590   3.738  0.6144  0.4685 -1.1507
   18TAL    C90 6171   8.091   3.474   3.652  0.3879 -0.8878 -0.2480
   19HTM    C91 6172   8.041   4.159   3.403 -0.0501  0.0264 -0.1190
   19HTM    C92 6173   8.093   4.117   3.284 -0.2871 -0.0331 -0.2025
   19HTM    C93 6174   8.230   4.156   3.264 -0.2260 -0.3200 -0.3517
   19HTM    C94 6175   8.282   4.229   3.366  0.0575 -0.4794 -0.3822
   19HTM    S10 6176   8.161   4.253   3.498  0.2711 -0.2778 -0.2235
   20TAL    C95 6177   8.313   4.108   3.141  0.1814 -0.9272 -0.1872
   20TAL    C96 6178   8.257   3.996   3.048  0.2763 -0.2995 -0.3562
   20TAL    C97 6179   8.211   3.860   3.106 -0.3965  0.2635 -0.8064
   20TAL    C98 6180   8.295   3.782   3.214  0.3255  0.3440  1.1506
   20TAL    C99 6181   8.225   3.653   3.264 -0.3816 -0.1378  0.1088
   20TAL   C100 6182   8.306   3.552   3.344  0.6432 -0.1672 -0.0309
   21HTM   C101 6183   8.411   4.289   3.381  0.3749 -0.3459 -0.1463
   21HTM   C102 6184   8.533   4.238   3.416  0.3710 -0.2499  0.0055
   21HTM   C103 6185   8.636   4.338   3.426  0.2747 -0.1652  0.1523
   21HTM   C104 6186   8.593   4.464   3.398  0.2071 -0.1972  0.1128
   21HTM    S11 6187   8.418   4.467   3.357  0.2576 -0.3371 -0.1150
   22TAL   C105 6188   8.778   4.298   3.465  0.6495  0.0154 -0.2043
   22TAL   C106 6189   8.806   4.253   3.608 -0.5052  0.0204  0.3439
   22TAL   C107 6190   8.942   4.201   3.640  0.4690 -0.0166 -0.7166
   22TAL   C108 6191   8.965   4.062   3.582  0.0085 -0.8566  1.0586
   22TAL   C109 6192   9.064   3.989   3.663  0.8108  0.2262  0.3972
   22TAL   C110 6193   9.106   3.856   3.604 -0.2000 -0.0034  0.3507
   23HTM   C111 6194   8.665   4.597   3.400 -0.0447  0.3815  0.0929
   23HTM   C112 6195   8.622   4.712   3.341 -0.2546  0.5760  0.6235
   23HTM   C113 6196   8.712   4.823   3.360 -0.2422  0.5429  0.7621
   23HTM   C114 6197   8.823   4.793   3.432 -0.0226  0.3232  0.3373
   23HTM    S12 6198   8.824   4.620   3.483  0.1869  0.1396 -0.2757
   24TAL   C115 6199   8.686   4.958   3.293  0.3956 -0.3587 -0.4946
   24TAL   C116 6200   8.634   5.093   3.346 -0.0723 -0.2441  0.7113
   24TAL   C117 6201   8.629   5.200   3.237 -0.3520 -0.3215  0.0566
   24TAL   C118 6202   8.600   5.342   3.300 -0.7596  0.2647  0.3952
   24TAL   C119 6203   8.618   5.458   3.202 -0.0189 -0.5394 -0.0721
   24TAL   C120 6204   8.565   5.583   3.265 -0.0127 -0.1483  0.5495
   25HTM   C121 6205   8.944   4.870   3.467  0.1126 -0.3728 -0.2004
   25HTM   C122 6206   8.956   5.006   3.464 -0.1097 -0.3510 -0.1808
   25HTM   C123 6207   9.088   5.052   3.500 -0.2565 -0.1295  0.0795
   25HTM   C124 6208   9.176   4.952   3.529 -0.1467  0.0179  0.2585
   25HTM    S13 6209   9.098   4.790   3.514  0.1533 -0.1126  0.1109
   26TAL   C125 6210   9.119   5.199   3.469  0.1099  0.2762 -0.4213
   26TAL   C126 6211   9.082   5.270   3.336  0.0862  0.3713 -0.0115
   26TAL   C127 6212   9.139   5.217   3.204 -0.3028 -0.3250 -0.2151
   26TAL   C128 6213   9.222   5.325   3.137  1.1810  0.4482 -0.0190
   26TAL   C129 6214   9.145   5.437   3.070  0.5012 -0.1355 -0.2099
   26TAL   C130 6215   9.239   5.545   3.019  0.2011 -1.1011 -0.1408
   27HTM   C131 6216   9.317   4.958   3.551 -0.1638  0.0016 -0.0715
   27HTM   C132 6217   9.386   5.066   3.598 -0.0619  0.2041 -0.6758
   27HTM   C133 6218   9.524   5.037   3.627 -0.0142  0.3138 -0.7927
   27HTM   C134 6219   9.560   4.908   3.603 -0.0799  0.1955 -0.2776
   27HTM    S14 6220   9.421   4.812   3.540 -0.2079 -0.0665  0.4004
   28TAL   C135 6221   9.623   5.148   3.677 -0.2985  0.1448  0.3270
   28TAL   C136 6222   9.576   5.276   3.752 -0.0944 -0.2450 -0.5482
   28TAL   C137 6223   9.686   5.377   3.781 -0.2825 -0.1203 -0.2882
   28TAL   C138 6224   9.634   5.502   3.853  0.1159  0.1050  0.3260
   28TAL   C139 6225   9.743   5.611   3.857  0.0609 -0.0903  0.2693
   28TAL   C140 6226   9.678   5.751   3.887  0.4645  0.1800 -1.3333
   29HTM   C141 6227   9.682   4.834   3.606  0.1798  0.2774  0.0466
   29HTM   C142 6228   9.697   4.708   3.555  0.1130  0.1872  0.2511
   29HTM   C143 6229   9.833   4.663   3.551  0.0789  0.0703  0.4157
   29HTM   C144 6230   9.923   4.754   3.599  0.1198  0.0715  0.3365
   29HTM    S15 6231   9.841   4.905   3.652  0.2051  0.2213  0.0460
   30TAL   C145 6232   9.868   4.521   3.502 -0.7350  0.6507 -0.0924
   30TAL   C146 6233   9.763   4.412   3.500 -0.8891  0.1443  0.1464
   30TAL   C147 6234   9.691   4.382   3.629  0.0701 -0.4232  0.2363
   30TAL   C148 6235   9.598   4.268   3.615 -0.0243  0.0746 -0.2838
   30TAL   C149 6236   9.540   4.230   3.753  0.2069 -0.3840 -0.2871
   30TAL   C150 6237   9.427   4.128   3.747 -0.6541 -0.1664 -0.0330
   31HTM   C151 6238  10.070   4.744   3.599 -0.1659  0.3895 -0.1942
   31HTM   C152 6239  10.148   4.636   3.627 -0.5530  0.0250 -0.5001
   31HTM   C153 6240  10.289   4.660   3.605 -0.4749 -0.4458 -0.5126
   31HTM   C154 6241  10.317   4.785   3.561 -0.0284 -0.4403 -0.2163
   31HTM    S16 6242  10.168   4.885   3.542  0.3309  0.1650  0.1042
   32TAL   C155 6243  10.390   4.559   3.645  0.5704  0.6999  0.2196
   32TAL   C156 6244  10.416   4.445   3.555  0.6058 -0.2119 -0.1952
   32TAL   C157 6245  10.535   4.348   3.570 -0.3249 -0.4306 -0.7831
   32TAL   C158 6246  10.681   4.410   3.569  0.9025 -0.0535  1.1306
   32TAL   C159 6247  10.792   4.299   3.556  0.1637  0.7077  0.5736
   32TAL   C160 6248  10.940   4.333   3.563  0.3263 -0.2064  0.0400
   33HTM   C161 6249  10.449   4.850   3.517 -0.1426 -0.1216 -0.4616
   33HTM   C162 6250  10.474   4.982   3.496 -0.0905 -0.1132 -0.3426
   33HTM   C163 6251  10.607   5.009   3.446  0.0240 -0.0944 -0.0299
   33HTM   C164 6252  10.683   4.898   3.429  0.0592 -0.0889  0.0896
   33HTM    S17 6253  10.592   4.748   3.475 -0.0505 -0.1070 -0.1855
   34TAL   C165 6254  10.633   5.144   3.407 -0.8673 -0.2209 -0.3059
   34TAL   C166 6255  10.686   5.249   3.508  0.6170  0.3844 -0.2482
   34TAL   C167 6256  10.758   5.355   3.421 -0.2051 -0.3074 -0.3823
   34TAL   C168 6257  10.764   5.500   3.485 -0.0875  0.1242 -0.1307
   34TAL   C169 6258  10.854   5.605   3.426  0.3731  0.0606  0.2515
   34TAL   C170 6259  10.825   5.739   3.490 -0.2261  0.0381  0.1621
   35HTM   C171 6260  10.822   4.871   3.390  0.2270 -0.0159 -0.1856
   35HTM   C172 6261  10.883   4.918   3.278  0.5240 -0.1502 -0.0826
   35HTM   C173 6262  11.009   4.854   3.249  0.4357 -0.4253  0.1355
   35HTM   C174 6263  11.044   4.758   3.339  0.0710 -0.5009  0.1990
   35HTM    S18 6264  10.920   4.741   3.469 -0.1906 -0.2282 -0.0137
   36TAL   C175 6265  11.098   4.891   3.129 -0.3541  0.0665 -0.5335
   36TAL   C176 6266  11.196   5.004   3.147 -0.5858 -0.6218 -0.0519
   36TAL   C177 6267  11.113   5.136   3.155  0.0049  0.6208 -0.3853
   36TAL   C178 6268  11.188   5.263   3.155 -0.4205 -0.0345 -0.0527
   36TAL   C179 6269  11.090   5.383   3.148 -0.2138  0.3785  0.1676
   36TAL   C180 6270  11.157   5.515   3.122 -0.2719  0.6412 -0.1246
   37HTM   C181 6271  11.148   4.663   3.352 -0.4991 -0.9745  0.7678
   37HTM   C182 6272  11.226   4.641   3.462 -0.7081 -1.5783  0.8026
   37HTM   C183 6273  11.332   4.546   3.439 -0.4295 -1.1697  0.3582
   37HTM   C184 6274  11.333   4.495   3.313 -0.0079 -0.2548 -0.0159
   37HTM    S19 6275  11.201   4.564   3.211  0.0703  0.1655  0.1659
   38TAL   C185 6276  11.441   4.519   3.541  0.1046  0.1354 -0.0112
   38TAL   C186 6277  11.557   4.616   3.558  1.0567 -0.0493  0.3921
   38TAL   C187 6278  11.511   4.766   3.585 -0.8723  0.5595  0.4849
   38TAL   C188 6279  11.642   4.836   3.615  0.1913  0.1393 -0.2003
   38TAL   C189 6280  11.630   4.984   3.650 -0.0939  1.0086  0.4610
   38TAL   C190 6281  11.756   5.041   3.704 -0.4125 -0.7739 -0.5141
   39HTM   C191 6282  11.421   4.396   3.241  0.3937  0.0658 -0.1527
   39HTM   C192 6283  11.397   4.327   3.126  0.4807 -0.0815 -0.0824
   39HTM   C193 6284  11.505   4.239   3.088  0.5300 -0.0935  0.0852
   39HTM   C194 6285  11.610   4.241   3.174  0.4808  0.0446  0.1430
   39HTM    S20 6286  11.582   4.355   3.311  0.3673  0.2014 -0.0114
   40TAL   C195 6287  11.491   4.138   2.977  0.2660  0.0496  0.4582
   40TAL   C196 6288  11.407   4.005   3.010  0.3017 -0.3613  0.3000
   40TAL   C197 6289  11.391   3.900   2.903  0.3587 -0.0808  0.3585
   40TAL   C198 6290  11.510   3.846   2.831 -0.3175 -0.5693 -0.6624
   40TAL   C199 6291  11.616   3.763   2.905 -0.0483 -0.1286  0.2160
   40TAL   C200 6292  11.576   3.626   2.960 -0.9008 -0.8526 -0.4685
   41HTM   C201 6293  11.727   4.164   3.178 -0.3281 -0.2052  0.0284
   41HTM   C202 6294  11.848   4.217   3.143 -0.4698 -0.1783 -0.4276
   41HTM   C203 6295  11.956   4.123   3.149 -0.3610 -0.0558 -0.4591
   41HTM   C204 6296  11.918   3.998   3.189 -0.1364  0.0112 -0.0273
   41HTM    S21 6297  11.741   3.990   3.221 -0.0442 -0.0765  0.4566
   42TAL   C205 6298  12.100   4.154   3.102  0.2866  0.3659 -0.5654
   42TAL   C206 6299  12.139   4.289   3.048  0.1514 -0.5503  0.5936
   42TAL   C207 6300  12.276   4.287   2.983  0.3672  0.0907 -0.2918
   42TAL   C208 6301  12.359   4.416   2.986 -0.3515  0.2001 -0.8241
   42TAL   C209 6302  12.488   4.387   2.906  0.3341  0.1655 -0.0298
   42TAL   C210 6303  12.574   4.507   2.884  0.7219 -0.8615 -0.1525
   43HTM   C211 6304  12.001   3.877   3.214  0.2139  0.0916 -0.3028
   43HTM   C212 6305  11.958   3.748   3.219  0.3244  0.0705  0.1972
   43HTM   C213 6306  12.063   3.652   3.236  0.4053  0.2271  0.5821
   43HTM   C214 6307  12.188   3.708   3.245  0.3566  0.3680  0.3753
   43HTM    S22 6308  12.180   3.888   3.232  0.2036  0.3130 -0.3267
   44TAL   C215 6309  12.019   3.505   3.238 -0.0479  0.4196 -0.0711
   44TAL   C216 6310  11.962   3.450   3.111 -0.1342  0.2662 -0.0996
   44TAL   C217 6311  12.066   3.420   3.001 -0.4691  0.1399  0.3202
   44TAL   C218 6312  12.004   3.370   2.874  0.3029 -0.2442  0.8919
   44TAL   C219 6313  11.880   3.433   2.821  0.8654  0.4785 -0.1331
   44TAL   C220 6314  11.833   3.355   2.696  0.5853 -0.2917  0.5690
   45HTM   C221 6315  12.325   3.654   3.262  0.0547  0.1487  0.2996
   45HTM   C222 6316  12.432   3.735   3.289  0.1249  0.0739  0.2475
   45HTM   C223 6317  12.554   3.663   3.315  0.0856 -0.0120  0.1950
   45HTM   C224 6318  12.541   3.528   3.308 -0.0146 -0.0030  0.2075
   45HTM    S23 6319  12.371   3.480   3.267 -0.0673  0.1159  0.2868
   46TAL   C225 6320  12.681   3.743   3.341  0.8020  0.1860  0.2201
   46TAL   C226 6321  12.704   3.843   3.454 -0.1646 -0.3541 -0.9365
   46TAL   C227 6322  12.589   3.947   3.476  0.2880  0.0205 -0.5541
   46TAL   C228 6323  12.602   4.041   3.593 -0.2627  0.9609  0.7271
   46TAL   C229 6324  12.740   4.087   3.623  0.6736 -0.4765  0.0589
   46TAL   C230 6325  12.747   4.181   3.737 -0.3005 -0.6151  0.1026
   47HTM   C231 6326  12.634   3.415   3.336 -0.0555 -0.2092 -0.3388
   47HTM   C232 6327  12.599   3.284   3.344 -0.0412 -0.1973 -0.0736
   47HTM   C233 6328  12.708   3.196   3.377 -0.0546 -0.1066  0.2152
   47HTM   C234 6329  12.827   3.260   3.395 -0.0789 -0.0490  0.1702
   47HTM    S24 6330  12.810   3.438   3.370 -0.0871 -0.1055 -0.2435
   48TAL   C235 6331  12.674   3.048   3.389  0.8790 -0.3199 -0.2132
   48TAL   C236 6332  12.790   2.959   3.406 -0.0148  0.6027 -0.1415
   48TAL   C237 6333  12.861   2.918   3.280  0.2018  0.0362  0.4086
   48TAL   C238 6334  12.981   2.833   3.309  0.2039  0.7230  0.1648
   48TAL   C239 6335  13.069   2.800   3.191 -0.6092 -0.8865  0.3311
   48TAL   C240 6336  13.007   2.729   3.066  0.1441  0.0395  0.9169
    1HTM     C1 6337   4.338   6.337   5.039 -0.0590 -0.3617 -0.0680
    1HTM     C2 6338   4.322   6.246   4.939 -0.4325 -0.4170  0.0391
    1HTM     C3 6339   4.185   6.212   4.912 -0.5624 -0.0274  0.2079
    1HTM     C4 6340   4.096   6.277   4.993 -0.2880  0.3249  0.2294
    1HTM     S1 6341   4.179   6.387   5.109  0.1591  0.1911  0.0365
    2TAL     C5 6342   4.153   6.108   4.800 -0.4826  0.9153  0.1929
    2TAL     C6 6343   4.236   5.982   4.778 -0.1520  0.3454  0.0803
    2TAL     C7 6344   4.183   5.909   4.654  0.0191  0.0906  0.1061
    2TAL     C8 6345   4.239   5.769   4.648  0.0756  0.4406 -0.2182
    2TAL     C9 6346   4.389   5.749   4.629 -1.1196  0.1674  0.1870
    2TAL    C10 6347   4.400   5.596   4.624 -0.0553 -0.0001  0.5413
    3HTM    C11 6348   3.950   6.269   5.017 -0.4389 -0.1644  0.5149
    3HTM    C12 6349   3.874   6.352   5.092 -0.7133 -0.2539  0.3355
    3HTM    C13 6350   3.733   6.321   5.088 -0.7019 -0.2422 -0.2213
    3HTM    C14 6351   3.703   6.214   5.010 -0.4189 -0.1437 -0.4665
    3HTM     S2 6352   3.851   6.143   4.934 -0.1426 -0.0573 -0.0100
    4TAL    C15 6353   3.638   6.423   5.156 -0.0095 -0.3962  0.0285
    4TAL    C16 6354   3.695   6.552   5.213 -0.0222  0.4221  0.0604
    4TAL    C17 6355   3.601   6.653   5.274  0.5232 -0.4193  0.3079
    4TAL    C18 6356   3.676   6.775   5.346 -0.2492 -0.0230 -0.1075
    4TAL    C19 6357   3.775   6.742   5.455 -0.6729  0.2027 -0.4427
    4TAL    C20 6358   3.857   6.860   5.497  0.3375 -0.7008  0.5482
    5HTM    C21 6359   3.584   6.138   4.985 -0.0260 -0.3582  0.2364
    5HTM    C22 6360   3.505   6.082   5.080  0.1847 -0.7041  0.2084
    5HTM    C23 6361   3.412   5.984   5.029  0.1216 -0.5715  0.0694
    5HTM    C24 6362   3.421   5.966   4.894 -0.1370 -0.1243 -0.0081
    5HTM     S3 6363   3.547   6.072   4.821 -0.3225  0.1662  0.0881
    6TAL    C25 6364   3.309   5.927   5.127 -0.1103  0.1112 -0.8191
    6TAL    C26 6365   3.343   5.805   5.215  0.4026 -0.2055  0.2814
    6TAL    C27 6366   3.382   5.679   5.137  0.1637 -0.0408 -0.2464
    6TAL    C28 6367   3.435   5.562   5.223 -0.0012  0.0640  0.2816
    6TAL    C29 6368   3.355   5.506   5.337 -0.4827 -0.3836 -0.4098
    6TAL    C30 6369   3.209   5.472   5.311 -0.0145 -0.4328  0.3232
    7HTM    C31 6370   3.366   5.853   4.818 -0.4428  0.0149 -0.6660
    7HTM    C32 6371   3.234   5.823   4.802 -0.4361 -0.0138 -0.6664
    7HTM    C33 6372   3.210   5.686   4.765 -0.4293 -0.1304 -0.2458
    7HTM    C34 6373   3.323   5.612   4.752 -0.4310 -0.1902  0.0755
    7HTM     S4 6374   3.471   5.710   4.786 -0.4410 -0.1038 -0.1298
    8TAL    C35 6375   3.067   5.647   4.742  0.6492  0.1304  1.0674
    8TAL    C36 6376   2.962   5.669   4.854 -0.2009  0.5805 -0.2060
    8TAL    C37 6377   2.995   5.599   4.986 -0.2071  0.1676  0.2993
    8TAL    C38 6378   2.971   5.448   4.974 -0.7242  0.0542  0.0818
    8TAL    C39 6379   2.913   5.385   5.094 -0.2479  0.2502 -0.3522
    8TAL    C40 6380   2.897   5.233   5.069  0.2856 -0.4587 -0.1330
    9HTM    C41 6381   3.349   5.470   4.720 -0.1133  0.0434  0.5015
    9HTM    C42 6382   3.472   5.418   4.695 -0.0424  0.1733  0.5767
    9HTM    C43 6383   3.471   5.275   4.673  0.0703  0.2263  0.2201
    9HTM    C44 6384   3.348   5.219   4.681  0.0856  0.1367 -0.1272
    9HTM     S5 6385   3.221   5.343   4.718 -0.0426 -0.0226 -0.0301
   10TAL    C45 6386   3.594   5.190   4.644 -0.1030  0.8083 -0.2488
   10TAL    C46 6387   3.669   5.215   4.515 -0.2861 -0.5256  0.8402
   10TAL    C47 6388   3.766   5.097   4.484 -0.2868  0.2405 -0.4500
   10TAL    C48 6389   3.883   5.083   4.581 -0.4625 -0.3631 -0.5142
   10TAL    C49 6390   3.975   4.968   4.557 -0.2769  0.2317 -0.3843
   10TAL    C50 6391   4.086   4.933   4.663 -0.0016  0.5600  0.2246
   11HTM    C51 6392   3.304   5.080   4.657  0.0523 -0.1424 -0.1052
   11HTM    C52 6393   3.341   4.989   4.562 -0.1044 -0.0980 -0.2072
   11HTM    C53 6394   3.268   4.865   4.568 -0.1582 -0.0660 -0.2027
   11HTM    C54 6395   3.175   4.861   4.669 -0.0426 -0.0859 -0.0972
   11HTM     S6 6396   3.174   5.015   4.763  0.1447 -0.1469  0.0051
   12TAL    C55 6397   3.282   4.755   4.472  0.9354  0.2590 -0.0192
   12TAL    C56 6398   3.355   4.782   4.334 -0.0927 -0.1282 -0.1875
   12TAL    C57 6399   3.508   4.777   4.327 -0.0090  0.2078 -0.5806
   12TAL    C58 6400   3.564   4.812   4.183  0.3585 -0.1367  0.0031
   12TAL    C59 6401   3.711   4.851   4.182 -0.0419 -0.3987  0.2620
   12TAL    C60 6402   3.768   4.863   4.036  0.1784 -0.1806 -0.7129
   13HTM    C61 6403   3.085   4.754   4.710 -0.1386 -0.1416  0.0905
   13HTM    C62 6404   2.952   4.769   4.735 -0.1003 -0.1948  0.3264
   13HTM    C63 6405   2.889   4.649   4.786 -0.0142 -0.2899  0.2081
   13HTM    C64 6406   2.975   4.544   4.799  0.0127 -0.3095 -0.1174
   13HTM     S7 6407   3.142   4.587   4.748 -0.0690 -0.2079 -0.3016
   14TAL    C65 6408   2.748   4.650   4.832  0.4464 -0.1325  0.1797
   14TAL    C66 6409   2.639   4.735   4.759  0.6446 -0.4635  0.0523
   14TAL    C67 6410   2.490   4.706   4.793  0.8884  0.5363  0.0750
   14TAL    C68 6411   2.426   4.573   4.762  0.2384 -0.2266  0.2310
   14TAL    C69 6412   2.491   4.450   4.826  0.3357 -0.1899 -0.5421
   14TAL    C70 6413   2.411   4.329   4.785 -0.4825  0.0454 -0.1291
   15HTM    C71 6414   2.964   4.406   4.847 -0.0528  0.3359  0.0393
   15HTM    C72 6415   3.064   4.324   4.890  0.0478  0.5126  0.1435
   15HTM    C73 6416   3.020   4.190   4.920  0.2464  0.4451  0.1326
   15HTM    C74 6417   2.887   4.170   4.900  0.2970  0.2168  0.0207
   15HTM     S8 6418   2.806   4.320   4.841  0.0963  0.0682 -0.0815
   16TAL    C75 6419   3.118   4.084   4.951 -0.3016 -0.1933  0.2070
   16TAL    C76 6420   3.255   4.072   4.883  0.3216 -0.1598 -0.3753
   16TAL    C77 6421   3.326   3.949   4.938  0.1056  0.5721  0.3572
   16TAL    C78 6422   3.468   3.925   4.890 -0.3110 -0.1841 -0.4244
   16TAL    C79 6423   3.561   4.052   4.909  0.4496 -0.0498 -0.1181
   16TAL    C80 6424   3.702   4.024   4.866  0.3129 -0.3080 -0.4074
   17HTM    C81 6425   2.812   4.047   4.895 -0.1487 -0.2868 -0.1868
   17HTM    C82 6426   2.834   3.930   4.962 -0.3388 -0.0931  0.2141
   17HTM    C83 6427   2.740   3.826   4.930 -0.3762 -0.1196  0.4082
   17HTM    C84 6428   2.646   3.863   4.838 -0.2148 -0.3337  0.1549
   17HTM     S9 6429   2.670   4.034   4.785 -0.0013 -0.5199 -0.3520
   18TAL    C85 6430   2.744   3.687   5.000 -0.2193 -0.4776  0.1644
   18TAL    C86 6431   2.872   3.602   4.983 -0.2631  0.0453  0.4494
   18TAL    C87 6432   2.879   3.466   5.043  0.6244  0.0640  0.1690
   18TAL    C88 6433   3.019   3.405   5.030 -0.4107 -0.4388 -0.1133
   18TAL    C89 6434   3.034   3.258   5.072  0.1266  0.0529  0.6453
   18TAL    C90 6435   2.974   3.165   4.966  0.0850  0.8521  0.5314
   19HTM    C91 6436   2.540   3.790   4.771 -0.3330  0.2165 -0.4270
   19HTM    C92 6437   2.436   3.855   4.711 -0.4355  0.0122 -0.4714
   19HTM    C93 6438   2.336   3.766   4.657 -0.3479 -0.1796 -0.3204
   19HTM    C94 6439   2.363   3.634   4.677 -0.1783 -0.1218 -0.1614
   19HTM    S10 6440   2.518   3.611   4.765 -0.1161  0.1819 -0.1898
   20TAL    C95 6441   2.209   3.823   4.589 -0.6152  0.5667  0.0634
   20TAL    C96 6442   2.196   3.970   4.588  0.2989  0.1774  0.1671
   20TAL    C97 6443   2.118   4.022   4.473  0.3876  0.1406  0.4799
   20TAL    C98 6444   2.171   3.977   4.336  0.0914 -0.3992 -0.2856
   20TAL    C99 6445   2.078   4.032   4.232  0.8278  0.1804 -0.1261
   20TAL   C100 6446   2.096   3.966   4.102  0.0725  0.1747 -0.3922
   21HTM   C101 6447   2.296   3.510   4.642  0.1102  0.0072 -0.0689
   21HTM   C102 6448   2.284   3.393   4.711 -0.3386  0.2079  0.1950
   21HTM   C103 6449   2.210   3.292   4.640 -0.5260  0.2542  0.3254
   21HTM   C104 6450   2.166   3.331   4.518 -0.2204  0.0884  0.1608
   21HTM    S11 6451   2.215   3.501   4.481  0.3325 -0.1403 -0.1741
   22TAL   C105 6452   2.186   3.158   4.703 -0.5778  0.2003 -0.5178
   22TAL   C106 6453   2.181   3.135   4.852  0.4751  0.3016 -0.2588
   22TAL   C107 6454   2.206   2.995   4.912  0.7496 -0.4272  0.8722
   22TAL   C108 6455   2.342   2.937   4.893  0.0123  0.4891 -0.4118
   22TAL   C109 6456   2.404   2.821   4.969  0.7705  0.3502 -0.1860
   22TAL   C110 6457   2.556   2.827   4.951  0.5383  0.5911 -0.0225
   23HTM   C111 6458   2.083   3.271   4.411  0.0878  0.0956 -0.0106
   23HTM   C112 6459   2.077   3.305   4.279  0.5349  0.0108 -0.0539
   23HTM   C113 6460   1.994   3.218   4.200  0.7849 -0.0267 -0.2780
   23HTM   C114 6461   1.936   3.118   4.272  0.5286  0.0293 -0.4063
   23HTM    S12 6462   1.983   3.125   4.446 -0.0532  0.1346 -0.2519
   24TAL   C115 6463   1.971   3.248   4.053  0.2267  0.3454  0.4145
   24TAL   C116 6464   2.102   3.286   3.978  0.2293 -0.5416 -0.4505
   24TAL   C117 6465   2.187   3.180   3.923 -0.3482  0.0710 -0.0682
   24TAL   C118 6466   2.296   3.213   3.826 -0.1046 -0.1889  0.5771
   24TAL   C119 6467   2.394   3.323   3.872 -0.2589  0.0754  0.3522
   24TAL   C120 6468   2.499   3.345   3.773  0.0973  0.3947 -0.0788
   25HTM   C121 6469   1.832   3.014   4.239  0.5895  0.1227 -0.3487
   25HTM   C122 6470   1.809   2.898   4.307  1.4902 -0.3281 -0.7942
   25HTM   C123 6471   1.714   2.811   4.243  1.3919 -0.3511 -0.6196
   25HTM   C124 6472   1.665   2.860   4.125  0.4163  0.0824 -0.0411
   25HTM    S13 6473   1.735   3.022   4.087 -0.4608  0.5569  0.3312
   26TAL   C125 6474   1.658   2.689   4.318 -0.5486 -0.0833 -0.1632
   26TAL   C126 6475   1.753   2.576   4.348 -0.1965  0.8080  0.1571
   26TAL   C127 6476   1.792   2.479   4.235 -0.5530  0.0388  0.2805
   26TAL   C128 6477   1.686   2.384   4.181  0.3682  0.2137 -0.2871
   26TAL   C129 6478   1.620   2.292   4.288  0.0602 -0.1436 -0.5195
   26TAL   C130 6479   1.543   2.173   4.222  0.4058  0.4237  0.1508
   27HTM   C131 6480   1.560   2.806   4.039 -0.1509 -0.2182 -0.7311
   27HTM   C132 6481   1.538   2.681   3.991 -0.4054 -0.1758 -0.7235
   27HTM   C133 6482   1.429   2.674   3.897 -0.5674 -0.0017 -0.5497
   27HTM   C134 6483   1.369   2.794   3.874 -0.4365  0.0886 -0.4250
   27HTM    S14 6484   1.445   2.926   3.969 -0.0957 -0.0401 -0.5180
   28TAL   C135 6485   1.385   2.539   3.836 -0.1678 -0.0657 -0.4843
   28TAL   C136 6486   1.440   2.410   3.900  0.3556  0.3805  0.3548
   28TAL   C137 6487   1.386   2.297   3.829  0.5634  0.5017 -0.1123
   28TAL   C138 6488   1.452   2.172   3.883  0.2824  0.6567  0.3124
   28TAL   C139 6489   1.375   2.039   3.856  0.3316  0.3917  0.6144
   28TAL   C140 6490   1.417   1.917   3.942 -0.0992  0.3108  0.2769
   29HTM   C141 6491   1.269   2.829   3.775  0.0021  0.1671 -0.1789
   29HTM   C142 6492   1.160   2.760   3.730 -0.0704  0.1564  0.0134
   29HTM   C143 6493   1.080   2.834   3.636 -0.1068  0.0546 -0.0352
   29HTM   C144 6494   1.128   2.959   3.608 -0.0620 -0.0125 -0.2646
   29HTM    S15 6495   1.279   2.993   3.700  0.0302  0.0482 -0.4383
   30TAL   C145 6496   0.956   2.765   3.579  0.4044 -0.0323  0.0550
   30TAL   C146 6497   0.865   2.693   3.677 -0.4138 -0.3528  0.0566
   30TAL   C147 6498   0.751   2.610   3.609  0.7537  0.2012 -0.6683
   30TAL   C148 6499   0.793   2.503   3.511  0.5325 -0.1342 -0.1515
   30TAL   C149 6500   0.667   2.422   3.481 -0.2074 -0.6554 -1.1717
   30TAL   C150 6501   0.699   2.335   3.359  0.4218  0.5031 -0.3424
   31HTM   C151 6502   1.072   3.069   3.538  0.2582  0.3404  0.0151
   31HTM   C152 6503   1.115   3.198   3.540 -0.3219  0.5324  0.1545
   31HTM   C153 6504   1.030   3.289   3.466 -0.7304  0.2347  0.2552
   31HTM   C154 6505   0.923   3.228   3.408 -0.4618 -0.1842  0.1923
   31HTM    S16 6506   0.921   3.051   3.442  0.3340 -0.2356 -0.0002
   32TAL   C155 6507   1.080   3.430   3.467  0.5490  0.1422  0.5681
   32TAL   C156 6508   0.993   3.544   3.523  0.0304  0.2054  0.2256
   32TAL   C157 6509   1.055   3.679   3.500  0.5182  0.0797 -0.2756
   32TAL   C158 6510   0.961   3.800   3.517  0.1454 -0.0700 -0.4490
   32TAL   C159 6511   0.884   3.807   3.644 -0.5210 -0.3337 -0.5824
   32TAL   C160 6512   0.791   3.928   3.655  0.2826 -0.8559  0.1138
   33HTM   C161 6513   0.830   3.286   3.313  0.2105  0.0209 -0.2030
   33HTM   C162 6514   0.784   3.413   3.300 -0.0122 -0.0165  0.2223
   33HTM   C163 6515   0.692   3.431   3.191 -0.2427  0.1329  0.4386
   33HTM   C164 6516   0.669   3.317   3.120 -0.1957  0.2844  0.1782
   33HTM    S17 6517   0.761   3.177   3.187  0.1460  0.2496 -0.3646
   34TAL   C165 6518   0.627   3.566   3.167  0.7203 -0.3993  0.2413
   34TAL   C166 6519   0.721   3.670   3.113 -0.2386 -0.5411  0.9428
   34TAL   C167 6520   0.667   3.815   3.108 -0.6248 -0.2170  0.0093
   34TAL   C168 6521   0.636   3.891   3.233  0.0759 -0.1426  0.2838
   34TAL   C169 6522   0.578   4.025   3.194  0.2094 -0.2999  0.1678
   34TAL   C170 6523   0.533   4.116   3.305 -0.7535  0.0476 -0.2328
   35HTM   C171 6524   0.587   3.288   3.008 -0.0401 -0.2841 -0.1615
   35HTM   C172 6525   0.562   3.360   2.895  0.2656 -0.3812 -0.2915
   35HTM   C173 6526   0.488   3.287   2.795  0.1913 -0.3357 -0.2695
   35HTM   C174 6527   0.456   3.160   2.832 -0.1709 -0.2037 -0.1225
   35HTM    S18 6528   0.518   3.121   2.997 -0.4486 -0.1261  0.0004
   36TAL   C175 6529   0.456   3.359   2.666  0.0655  0.5216  0.6325
   36TAL   C176 6530   0.579   3.354   2.566  0.0330  0.2067 -0.5748
   36TAL   C177 6531   0.587   3.466   2.476  0.2452 -0.4062 -0.1252
   36TAL   C178 6532   0.704   3.471   2.381 -0.0466 -0.2697  0.0051
   36TAL   C179 6533   0.754   3.610   2.365 -0.2972 -0.1774  0.4241
   36TAL   C180 6534   0.852   3.628   2.247 -0.5716  0.5066  0.3751
   37HTM   C181 6535   0.384   3.053   2.754 -0.2565 -0.0103 -0.3646
   37HTM   C182 6536   0.313   3.071   2.640 -0.3934 -0.2165 -0.3109
   37HTM   C183 6537   0.229   2.958   2.606 -0.2779 -0.3606 -0.1191
   37HTM   C184 6538   0.237   2.855   2.695 -0.0529 -0.2642 -0.0266
   37HTM    S19 6539   0.351   2.893   2.830  0.0312  0.0182 -0.1758
   38TAL   C185 6540   0.148   2.971   2.478 -0.2869  0.1164  0.1242
   38TAL   C186 6541   0.121   3.111   2.420  0.1635 -0.4325 -0.2082
   38TAL   C187 6542   0.035   3.217   2.502 -0.5703  0.1573 -0.3450
   38TAL   C188 6543   0.029   3.346   2.430 -0.0662  0.0312  0.2675
   38TAL   C189 6544   0.146   3.440   2.426 -0.0708  0.5125 -0.1841
   38TAL   C190 6545   0.150   3.534   2.546 -0.9246 -0.1258  0.4155
   39HTM   C191 6546   0.201   2.719   2.679  0.2968  0.0160  0.1191
   39HTM   C192 6547   0.270   2.604   2.704  0.0575 -0.0778  0.3510
   39HTM   C193 6548   0.198   2.484   2.668 -0.2365 -0.0081  0.6946
   39HTM   C194 6549   0.075   2.508   2.615 -0.2214  0.1392  0.7249
   39HTM    S20 6550   0.039   2.684   2.607  0.1684  0.2015  0.3184
   40TAL   C195 6551   0.265   2.349   2.683  0.5608 -0.8735 -0.8046
   40TAL   C196 6552   0.411   2.317   2.649  0.0859 -0.4955 -0.5579
   40TAL   C197 6553   0.440   2.325   2.500  0.1482  0.4734 -0.7348
   40TAL   C198 6554   0.567   2.256   2.452  0.4058  0.1643 -0.1563
   40TAL   C199 6555   0.632   2.290   2.320 -0.1846 -0.4218 -0.5998
   40TAL   C200 6556   0.540   2.277   2.193  0.2956 -0.2561 -0.6748
   41HTM   C201 6557  -0.028   2.412   2.567 -0.2718 -0.0496 -0.2030
   41HTM   C202 6558  -0.011   2.301   2.490 -0.5031  0.3133 -0.7801
   41HTM   C203 6559  -0.135   2.239   2.450 -0.6223  0.4599 -0.6421
   41HTM   C204 6560  -0.246   2.302   2.497 -0.4819  0.2086  0.0402
   41HTM    S21 6561  -0.203   2.447   2.596 -0.1860 -0.2359  0.5652
   42TAL   C205 6562  -0.124   2.118   2.359  0.2573 -0.8284  0.0919
   42TAL   C206 6563  -0.247   2.064   2.292  0.2434 -0.4780 -0.2239
   42TAL   C207 6564  -0.209   1.949   2.195  0.5249 -0.6593  0.0522
   42TAL   C208 6565  -0.324   1.895   2.104  0.3306  0.8139  0.6542
   42TAL   C209 6566  -0.300   1.769   2.021 -0.0746  0.3262  0.5515
   42TAL   C210 6567  -0.168   1.770   1.936  0.1921 -0.1412  0.3801
   43HTM   C211 6568  -0.387   2.288   2.492  0.3001  0.0580 -0.2674
   43HTM   C212 6569  -0.465   2.185   2.538  0.4463 -0.2398 -0.6801
   43HTM   C213 6570  -0.606   2.216   2.540  0.3915 -0.4904 -0.6605
   43HTM   C214 6571  -0.635   2.342   2.496  0.2034 -0.3837 -0.2333
   43HTM    S22 6572  -0.486   2.432   2.448  0.0796  0.0450  0.1809
   44TAL   C215 6573  -0.717   2.119   2.587 -0.5940 -0.0977 -0.1728
   44TAL   C216 6574  -0.760   2.014   2.484 -0.3576 -0.0013  0.1212
   44TAL   C217 6575  -0.655   1.935   2.405 -0.0703 -0.8214  0.6805
   44TAL   C218 6576  -0.718   1.869   2.287 -0.4279 -0.0145 -0.3947
   44TAL   C219 6577  -0.629   1.769   2.206  0.8757 -0.6858 -0.1442
   44TAL   C220 6578  -0.700   1.713   2.090 -0.0282 -0.0789  0.3560
   45HTM   C221 6579  -0.758   2.422   2.490 -0.0365 -0.1111  0.5169
   45HTM   C222 6580  -0.761   2.558   2.485  0.2031 -0.0913  0.8788
   45HTM   C223 6581  -0.894   2.613   2.483  0.3004  0.1403  0.8000
   45HTM   C224 6582  -0.992   2.519   2.486  0.1338  0.2971  0.3779
   45HTM    S23 6583  -0.924   2.352   2.492 -0.1602  0.1634  0.0448
   46TAL   C225 6584  -0.911   2.764   2.495 -0.1464 -0.0057 -0.7878
   46TAL   C226 6585  -0.792   2.860   2.481 -0.0305  0.0744  0.7614
   46TAL   C227 6586  -0.814   3.009   2.490  0.4111  0.0676 -0.0157
   46TAL   C228 6587  -0.902   3.058   2.608 -0.0144 -0.7394  0.2896
   46TAL   C229 6588  -0.951   3.200   2.599  0.4017 -0.0613  0.2418
   46TAL   C230 6589  -1.060   3.222   2.708 -0.3580 -0.2700 -0.0473
   47HTM   C231 6590  -1.137   2.522   2.498 -0.0980  0.1951  0.0042
   47HTM   C232 6591  -1.217   2.423   2.545 -0.2148  0.3771  0.1886
   47HTM   C233 6592  -1.358   2.455   2.541 -0.1991  0.4066 -0.1800
   47HTM   C234 6593  -1.384   2.579   2.491 -0.0703  0.2471 -0.6455
   47HTM    S24 6594  -1.233   2.665   2.444  0.0419  0.0459 -0.6547
   48TAL   C235 6595  -1.455   2.357   2.597  0.6552  0.0551  0.0081
   48TAL   C236 6596  -1.606   2.389   2.601  0.2714 -0.5516 -0.1805
   48TAL   C237 6597  -1.650   2.490   2.708 -0.1634  0.0784  0.2837
   48TAL   C238 6598  -1.796   2.543   2.678  0.3174 -0.1498 -0.0355
   48TAL   C239 6599  -1.805   2.629   2.550  0.6413  0.0324  0.0058
   48TAL   C240 6600  -1.935   2.711   2.541 -0.0614 -0.0261 -0.6663
    1HTM     C1 6601   5.697   3.932   4.330  0.0908  0.1727  0.3100
    1HTM     C2 6602   5.637   3.946   4.451  0.1950  0.4934  0.3264
    1HTM     C3 6603   5.710   3.884   4.559  0.1326  0.5109  0.3791
    1HTM     C4 6604   5.825   3.824   4.520 -0.0196  0.2035  0.4025
    1HTM     S1 6605   5.851   3.840   4.342 -0.0963 -0.1346  0.3596
    2TAL     C5 6606   5.656   3.873   4.698  0.3664  0.5111 -0.4357
    2TAL     C6 6607   5.524   3.950   4.743 -0.1173  0.5487  0.1957
    2TAL     C7 6608   5.393   3.921   4.670  0.3437 -0.6030 -0.3639
    2TAL     C8 6609   5.351   3.780   4.659 -0.3048 -0.0464 -0.5169
    2TAL     C9 6610   5.217   3.769   4.583 -0.1898  0.4208  0.0784
    2TAL    C10 6611   5.154   3.628   4.589 -0.3575  0.6288  0.2076
    3HTM    C11 6612   5.926   3.751   4.594  0.1600  0.0054 -0.2903
    3HTM    C12 6613   5.926   3.619   4.627  0.1299 -0.0527 -0.5200
    3HTM    C13 6614   6.052   3.572   4.679  0.1132 -0.1677 -0.5820
    3HTM    C14 6615   6.148   3.669   4.685  0.1312 -0.1974 -0.3996
    3HTM     S2 6616   6.086   3.828   4.626  0.1703 -0.0813 -0.1335
    4TAL    C15 6617   6.067   3.424   4.717 -0.5050  0.4189 -0.0859
    4TAL    C16 6618   5.943   3.334   4.705 -0.1220  0.4758  0.1291
    4TAL    C17 6619   5.969   3.198   4.777  0.1193  0.4429  0.1589
    4TAL    C18 6620   5.853   3.108   4.741 -0.5339  0.4826  0.4493
    4TAL    C19 6621   5.842   2.984   4.831  0.4932 -0.2220 -0.4957
    4TAL    C20 6622   5.945   2.875   4.818  0.7411  0.1661 -0.4439
    5HTM    C21 6623   6.289   3.673   4.724 -0.0443  0.0626  0.5311
    5HTM    C22 6624   6.377   3.769   4.682 -0.0467  0.1539  0.7322
    5HTM    C23 6625   6.514   3.738   4.711 -0.0422  0.0764  0.6306
    5HTM    C24 6626   6.532   3.619   4.775 -0.0366 -0.0743  0.3522
    5HTM     S3 6627   6.375   3.536   4.805 -0.0364 -0.1303  0.1956
    6TAL    C25 6628   6.622   3.831   4.666 -0.1680 -0.0031 -0.0426
    6TAL    C26 6629   6.620   3.886   4.523  0.7884  1.3746 -0.2575
    6TAL    C27 6630   6.731   3.981   4.487  0.1596 -0.4987  0.3520
    6TAL    C28 6631   6.748   4.017   4.336  0.0469  0.4618 -0.4466
    6TAL    C29 6632   6.864   4.105   4.290 -0.3311 -0.7547  0.5559
    6TAL    C30 6633   6.922   4.209   4.387  0.0602  0.6917 -0.5795
    7HTM    C31 6634   6.653   3.544   4.814 -0.0437 -0.1949 -0.1656
    7HTM    C32 6635   6.673   3.409   4.815 -0.1421 -0.2108  0.4470
    7HTM    C33 6636   6.805   3.370   4.858 -0.1922 -0.1137  0.6878
    7HTM    C34 6637   6.885   3.475   4.891 -0.1321 -0.0239  0.2590
    7HTM     S4 6638   6.800   3.633   4.869 -0.0068 -0.0550 -0.4883
    8TAL    C35 6639   6.844   3.219   4.859  0.4800 -0.4250 -0.0386
    8TAL    C36 6640   6.730   3.115   4.858  0.1218 -0.2374 -0.0441
    8TAL    C37 6641   6.651   3.104   4.729 -0.1688  0.5235  0.0969
    8TAL    C38 6642   6.527   3.010   4.713 -0.2057  0.4913  0.1776
    8TAL    C39 6643   6.415   3.017   4.811  1.0256  0.0206 -0.4926
    8TAL    C40 6644   6.357   3.154   4.843  0.1856 -0.3001  0.1358
    9HTM    C41 6645   7.025   3.470   4.937  0.3407 -0.0146 -0.2420
    9HTM    C42 6646   7.121   3.557   4.895  0.6502 -0.5019 -0.5517
    9HTM    C43 6647   7.250   3.533   4.954  0.5479 -0.7018 -0.4055
    9HTM    C44 6648   7.253   3.428   5.041  0.1597 -0.3673  0.0151
    9HTM     S5 6649   7.091   3.350   5.055 -0.1082  0.2312  0.2616
   10TAL    C45 6650   7.365   3.628   4.924  0.1266 -0.1902  0.0056
   10TAL    C46 6651   7.499   3.570   4.891  0.1952  0.0126 -0.1850
   10TAL    C47 6652   7.619   3.644   4.941  0.4852  0.2205  0.1350
   10TAL    C48 6653   7.747   3.570   4.916  0.6419 -0.0317  0.4510
   10TAL    C49 6654   7.873   3.650   4.926  0.3177 -0.5219 -0.6553
   10TAL    C50 6655   7.996   3.572   4.880 -0.2211 -0.5893 -0.1465
   11HTM    C51 6656   7.359   3.365   5.128 -0.2922 -0.5728 -0.2520
   11HTM    C52 6657   7.361   3.368   5.265 -0.5925 -0.9474 -0.2384
   11HTM    C53 6658   7.482   3.316   5.323 -0.4809 -0.5767 -0.1335
   11HTM    C54 6659   7.573   3.273   5.230 -0.0956  0.0803 -0.0674
   11HTM     S6 6660   7.512   3.295   5.062  0.1579  0.2836 -0.1328
   12TAL    C55 6661   7.502   3.323   5.476 -0.4818  0.2778 -0.6065
   12TAL    C56 6662   7.603   3.426   5.530  0.8347 -0.4329 -0.0653
   12TAL    C57 6663   7.564   3.569   5.529 -0.2804 -0.4420 -0.4280
   12TAL    C58 6664   7.673   3.669   5.504  0.1095 -0.4124  0.1827
   12TAL    C59 6665   7.734   3.663   5.361 -0.1806 -0.3199  0.5221
   12TAL    C60 6666   7.789   3.799   5.307  0.8919  0.0524  1.2834
   13HTM    C61 6667   7.705   3.220   5.248  0.0067 -0.2454 -0.5927
   13HTM    C62 6668   7.814   3.299   5.267  0.0908 -0.2247 -1.1442
   13HTM    C63 6669   7.934   3.226   5.297  0.0858 -0.1612 -0.9716
   13HTM    C64 6670   7.917   3.091   5.301 -0.0012 -0.1334 -0.2879
   13HTM     S7 6671   7.746   3.045   5.266 -0.0851 -0.1857  0.1942
   14TAL    C65 6672   8.063   3.311   5.320  0.1222 -0.4235 -0.8485
   14TAL    C66 6673   8.082   3.426   5.224  0.2326  0.4349  0.2477
   14TAL    C67 6674   8.140   3.543   5.298  0.0849 -0.2213  0.4781
   14TAL    C68 6675   8.126   3.669   5.215 -0.0514 -0.3102 -0.9760
   14TAL    C69 6676   8.193   3.786   5.289 -0.5191 -0.4101  0.5227
   14TAL    C70 6677   8.164   3.927   5.225  0.2783  0.6152 -0.5680
   15HTM    C71 6678   7.999   2.984   5.345  0.0557  0.4074 -0.2091
   15HTM    C72 6679   7.960   2.860   5.387 -0.1245  0.3371 -0.5796
   15HTM    C73 6680   8.068   2.780   5.440 -0.2775  0.1024 -0.6201
   15HTM    C74 6681   8.189   2.843   5.438 -0.2148 -0.0062 -0.2806
   15HTM     S8 6682   8.176   3.009   5.369  0.0457  0.1810  0.1196
   16TAL    C75 6683   8.046   2.638   5.487  0.3354  0.2477  0.0973
   16TAL    C76 6684   7.958   2.555   5.387  0.3237 -0.0425  0.1617
   16TAL    C77 6685   7.923   2.411   5.429  0.1552 -0.2291 -0.1408
   16TAL    C78 6686   7.842   2.324   5.326  0.3131  0.4591 -0.1745
   16TAL    C79 6687   7.801   2.192   5.385  0.3701  0.2507 -0.5831
   16TAL    C80 6688   7.683   2.144   5.306 -0.2289  0.6477  0.0732
   17HTM    C81 6689   8.321   2.812   5.488  0.2557 -0.4831 -0.1483
   17HTM    C82 6690   8.439   2.816   5.420  0.1740 -1.0407 -0.3283
   17HTM    C83 6691   8.550   2.757   5.492  0.1431 -0.9598 -0.2148
   17HTM    C84 6692   8.516   2.708   5.614  0.2019 -0.3407  0.0518
   17HTM     S9 6693   8.340   2.733   5.649  0.3007  0.1926  0.1810
   18TAL    C85 6694   8.694   2.752   5.433 -0.1297 -0.5229  0.3809
   18TAL    C86 6695   8.739   2.787   5.292 -0.3175 -0.0106  0.1463
   18TAL    C87 6696   8.670   2.699   5.183 -0.1007  0.0129  1.0287
   18TAL    C88 6697   8.632   2.755   5.046  0.5512 -0.3506 -0.0475
   18TAL    C89 6698   8.516   2.849   5.049  0.0013 -0.1686  0.1334
   18TAL    C90 6699   8.487   2.887   4.903 -0.1259  0.0918  0.2135
   19HTM    C91 6700   8.601   2.626   5.702 -0.1432  0.1739  0.3483
   19HTM    C92 6701   8.716   2.654   5.769 -0.3495  0.2272  0.6812
   19HTM    C93 6702   8.778   2.539   5.829 -0.4015  0.2347  0.7486
   19HTM    C94 6703   8.709   2.423   5.808 -0.2355  0.1873  0.4674
   19HTM    S10 6704   8.561   2.450   5.710  0.0022  0.1288  0.0923
   20TAL    C95 6705   8.899   2.573   5.911 -0.6001  0.5353 -0.2034
   20TAL    C96 6706   8.982   2.482   6.000 -0.2758  1.0929 -0.1787
   20TAL    C97 6707   9.067   2.375   5.931 -0.1411  0.1141  0.5018
   20TAL    C98 6708   9.148   2.293   6.033 -0.1855 -1.1376 -0.8597
   20TAL    C99 6709   9.213   2.164   5.977  0.6794  0.5661 -0.2951
   20TAL   C100 6710   9.282   2.078   6.084  0.3203 -0.0013  0.5807
   21HTM   C101 6711   8.734   2.283   5.834 -0.2661 -0.1651 -0.5918
   21HTM   C102 6712   8.789   2.189   5.753 -0.3762 -0.0280 -0.8259
   21HTM   C103 6713   8.794   2.057   5.811  0.0548 -0.0485 -0.9012
   21HTM   C104 6714   8.741   2.051   5.936  0.4937 -0.2012 -0.7248
   21HTM    S11 6715   8.682   2.212   5.992  0.3958 -0.3320 -0.4474
   22TAL   C105 6716   8.840   1.936   5.737  0.2655 -0.6780  0.1185
   22TAL   C106 6717   8.965   1.913   5.653 -0.8369 -0.2204 -0.4441
   22TAL   C107 6718   9.085   1.924   5.753 -0.7932 -0.1320  0.6112
   22TAL   C108 6719   9.221   1.911   5.681 -0.1349  0.3052  0.0838
   22TAL   C109 6720   9.247   1.776   5.619 -0.4204  0.1918  0.3330
   22TAL   C110 6721   9.376   1.768   5.531 -0.6190 -0.4257  0.0726
   23HTM   C111 6722   8.722   1.943   6.028  0.0314  0.2636 -0.2199
   23HTM   C112 6723   8.615   1.866   6.065 -0.1969  0.5009 -0.3824
   23HTM   C113 6724   8.649   1.759   6.154 -0.5627  0.3878 -0.3772
   23HTM   C114 6725   8.782   1.754   6.186 -0.6143  0.0644 -0.2110
   23HTM    S12 6726   8.875   1.885   6.104 -0.2015 -0.1240 -0.0467
   24TAL   C115 6727   8.540   1.670   6.209 -0.1761 -0.6693 -0.8858
   24TAL   C116 6728   8.408   1.637   6.133  0.6143 -1.2390  0.3185
   24TAL   C117 6729   8.422   1.551   6.007 -0.4507 -1.0876 -0.0953
   24TAL   C118 6730   8.284   1.509   5.964  0.3294  0.0308  0.5506
   24TAL   C119 6731   8.263   1.405   5.851  0.3019 -0.5568  0.9353
   24TAL   C120 6732   8.122   1.361   5.822  0.6298 -0.0875  0.2219
   25HTM   C121 6733   8.844   1.670   6.282 -0.2353  0.0679  0.1424
   25HTM   C122 6734   8.891   1.699   6.407 -0.1631 -0.0203  0.1361
   25HTM   C123 6735   8.957   1.588   6.471 -0.0048 -0.0257 -0.0350
   25HTM   C124 6736   8.961   1.475   6.395  0.0438  0.0582 -0.1592
   25HTM    S13 6737   8.881   1.499   6.236 -0.1079  0.1514 -0.0686
   26TAL   C125 6738   9.003   1.604   6.618 -0.8514  0.4039 -0.4634
   26TAL   C126 6739   8.895   1.569   6.716 -0.0514  0.1831 -0.0506
   26TAL   C127 6740   8.924   1.608   6.866  0.0398  0.7572 -0.1829
   26TAL   C128 6741   8.801   1.572   6.955 -0.4883 -0.5399  0.4610
   26TAL   C129 6742   8.826   1.609   7.099  0.1346 -0.6205 -0.5909
   26TAL   C130 6743   8.704   1.556   7.178  0.3252  0.2006  0.3608
   27HTM   C131 6744   9.012   1.340   6.420  0.3660  0.2760  0.2120
   27HTM   C132 6745   9.015   1.242   6.325  0.8340  0.5524 -0.0601
   27HTM   C133 6746   9.062   1.115   6.375  0.8397  0.4762 -0.2625
   27HTM   C134 6747   9.094   1.116   6.507  0.3772  0.1417 -0.1445
   27HTM    S14 6748   9.068   1.278   6.581 -0.1064 -0.1049  0.2342
   28TAL   C135 6749   9.055   0.995   6.287 -0.1455 -0.1959  0.0255
   28TAL   C136 6750   8.925   0.921   6.257 -0.1903 -0.0529  0.3913
   28TAL   C137 6751   8.819   0.908   6.363  0.1693  0.0101 -0.4623
   28TAL   C138 6752   8.704   0.829   6.301 -0.1515  0.3010 -0.6316
   28TAL   C139 6753   8.611   0.763   6.398  0.0884 -0.1116  0.0171
   28TAL   C140 6754   8.502   0.697   6.314  0.5303  0.0131  0.0354
   29HTM   C141 6755   9.153   1.009   6.586  0.1017 -0.1636  0.1715
   29HTM   C142 6756   9.119   0.877   6.592 -0.0464 -0.1186  0.3448
   29HTM   C143 6757   9.205   0.799   6.678 -0.1956 -0.0840  0.5271
   29HTM   C144 6758   9.304   0.871   6.737 -0.1613 -0.1027  0.4924
   29HTM    S15 6759   9.296   1.045   6.689  0.0638 -0.1658  0.2256
   30TAL   C145 6760   9.177   0.651   6.685  0.1727  0.1681 -0.4211
   30TAL   C146 6761   9.177   0.565   6.558  0.6551  0.6634  0.4310
   30TAL   C147 6762   9.056   0.562   6.459  0.0118  0.1330 -0.9277
   30TAL   C148 6763   8.913   0.545   6.516  0.6092 -0.2068 -0.0735
   30TAL   C149 6764   8.858   0.423   6.585 -1.4294  0.5818 -0.1559
   30TAL   C150 6765   8.910   0.284   6.537  0.6101 -0.3495 -0.1493
   31HTM   C151 6766   9.420   0.822   6.811  0.4474  0.7699 -0.0163
   31HTM   C152 6767   9.472   0.884   6.921  0.4738  0.3035  0.2367
   31HTM   C153 6768   9.597   0.829   6.965 -0.0108 -0.5374  0.5779
   31HTM   C154 6769   9.641   0.724   6.889 -0.4068 -0.7122  0.5847
   31HTM    S16 6770   9.527   0.688   6.755 -0.1966  0.1786  0.1580
   32TAL   C155 6771   9.678   0.872   7.087  0.3128  0.3152  0.2567
   32TAL   C156 6772   9.631   0.997   7.164  0.7661  0.2690  0.2721
   32TAL   C157 6773   9.728   1.055   7.270  0.9256  0.1704  0.2534
   32TAL   C158 6774   9.875   1.074   7.227  0.4150 -0.6134  0.2014
   32TAL   C159 6775   9.914   1.155   7.106  0.4158  0.0785  0.1083
   32TAL   C160 6776   9.916   1.309   7.113 -0.2757 -0.4858  0.5206
   33HTM   C161 6777   9.764   0.642   6.886  0.7321  0.1092  0.4560
   33HTM   C162 6778   9.855   0.610   6.982  0.9973 -0.0425  0.1576
   33HTM   C163 6779   9.956   0.517   6.938  0.6790 -0.2404 -0.1650
   33HTM   C164 6780   9.942   0.478   6.808  0.1710 -0.2396 -0.1128
   33HTM    S17 6781   9.799   0.556   6.731  0.0544  0.0131  0.3516
   34TAL   C165 6782  10.065   0.468   7.031  0.4340 -0.0951  0.1371
   34TAL   C166 6783  10.091   0.562   7.152 -0.2679 -0.1033  0.1558
   34TAL   C167 6784  10.209   0.519   7.240 -0.2566  0.1578 -0.1626
   34TAL   C168 6785  10.195   0.392   7.330 -0.1896 -0.0701  0.1655
   34TAL   C169 6786  10.072   0.392   7.423  0.5838 -0.2070 -0.1631
   34TAL   C170 6787  10.037   0.506   7.519 -0.1747 -0.4041  0.0542
   35HTM   C171 6788  10.014   0.377   6.732 -0.3271 -0.0115 -0.1724
   35HTM   C172 6789  10.148   0.355   6.721 -0.2818  0.3791 -0.4125
   35HTM   C173 6790  10.182   0.242   6.638 -0.1028  0.4791 -0.4756
   35HTM   C174 6791  10.073   0.178   6.586 -0.0116  0.1646 -0.2829
   35HTM    S18 6792   9.919   0.256   6.638 -0.1457 -0.2857 -0.0055
   36TAL   C175 6793  10.329   0.213   6.603  0.2704 -0.6113 -0.1646
   36TAL   C176 6794  10.432   0.198   6.716  0.1345 -0.1153  0.0065
   36TAL   C177 6795  10.397   0.086   6.816 -0.2642  0.0133 -0.3409
   36TAL   C178 6796  10.488   0.064   6.935 -0.7525 -0.0465  0.3646
   36TAL   C179 6797  10.447  -0.056   7.013 -0.8217  0.5683  0.0270
   36TAL   C180 6798  10.504  -0.063   7.152  0.5296 -0.2552 -0.5894
   37HTM   C181 6799  10.063   0.061   6.493 -0.4626  0.0019 -0.8226
   37HTM   C182 6800   9.944   0.029   6.435 -0.2102 -0.1876 -1.2379
   37HTM   C183 6801   9.949  -0.093   6.358  0.1838 -0.3209 -1.0073
   37HTM   C184 6802  10.071  -0.153   6.358  0.2319 -0.2331 -0.4162
   37HTM    S19 6803  10.191  -0.060   6.455 -0.2204  0.0271 -0.1027
   38TAL   C185 6804   9.824  -0.139   6.290  0.2439  0.1111 -0.0421
   38TAL   C186 6805   9.783  -0.067   6.161 -0.3694  0.2719  0.3705
   38TAL   C187 6806   9.872  -0.061   6.036 -0.4174 -0.4553  0.2219
   38TAL   C188 6807   9.915  -0.196   5.971 -0.3387  0.6351  0.2572
   38TAL   C189 6808  10.039  -0.189   5.874 -0.0960  0.7864  0.0947
   38TAL   C190 6809  10.170  -0.130   5.926 -0.2612 -0.6761 -0.8393
   39HTM   C191 6810  10.127  -0.262   6.281  0.2965 -0.1076  0.5320
   39HTM   C192 6811  10.065  -0.378   6.245  0.2656 -0.1712  0.7918
   39HTM   C193 6812  10.151  -0.471   6.178  0.1833 -0.2508  0.7970
   39HTM   C194 6813  10.279  -0.427   6.162  0.1514 -0.2485  0.5415
   39HTM    S20 6814  10.300  -0.262   6.232  0.2234 -0.1438  0.2724
   40TAL   C195 6815  10.110  -0.611   6.125 -0.1632  0.0958  1.1341
   40TAL   C196 6816   9.967  -0.644   6.082  0.3649  0.0043 -0.6231
   40TAL   C197 6817   9.930  -0.571   5.955 -0.2543 -0.1706 -0.0418
   40TAL   C198 6818   9.792  -0.617   5.893  0.4489 -0.2375 -0.1625
   40TAL   C199 6819   9.667  -0.616   5.980 -0.5301 -0.5405 -0.5045
   40TAL   C200 6820   9.534  -0.637   5.917 -0.6418  0.1065  0.1919
   41HTM   C201 6821  10.403  -0.482   6.115  0.0571  0.1109  0.1747
   41HTM   C202 6822  10.507  -0.403   6.076  0.1563  0.2418  0.6990
   41HTM   C203 6823  10.618  -0.477   6.021  0.2670  0.4287  0.6692
   41HTM   C204 6824  10.598  -0.612   6.018  0.2522  0.4419  0.1224
   41HTM    S21 6825  10.436  -0.657   6.084  0.0961  0.2166 -0.4015
   42TAL   C205 6826  10.747  -0.404   5.978  0.2195 -0.0793 -0.2401
   42TAL   C206 6827  10.773  -0.267   6.036 -0.0373  0.0181 -0.3844
   42TAL   C207 6828  10.805  -0.279   6.184 -0.4600  0.4897  0.0121
   42TAL   C208 6829  10.764  -0.159   6.263 -0.4792  0.2940 -0.6303
   42TAL   C209 6830  10.688  -0.197   6.382 -0.2465  0.1383  0.1628
   42TAL   C210 6831  10.610  -0.082   6.440  0.7220 -0.2477  0.2280
   43HTM   C211 6832  10.676  -0.718   5.956 -0.4563 -0.2062  0.0583
   43HTM   C212 6833  10.621  -0.826   5.892 -0.2417 -0.4392  0.2639
   43HTM   C213 6834  10.716  -0.907   5.821 -0.1131 -0.2460  0.2151
   43HTM   C214 6835  10.844  -0.862   5.830 -0.2298  0.1343 -0.0271
   43HTM    S22 6836  10.855  -0.711   5.930 -0.5132  0.2788 -0.2144
   44TAL   C215 6837  10.678  -1.041   5.750 -0.1618  0.2430  0.0930
   44TAL   C216 6838  10.566  -1.025   5.647 -0.0996 -0.0440 -0.0152
   44TAL   C217 6839  10.545  -1.156   5.560  0.4964 -0.0194 -0.0638
   44TAL   C218 6840  10.438  -1.149   5.455 -0.4101  0.2687  0.4204
   44TAL   C219 6841  10.419  -1.284   5.403 -0.4303 -0.0434 -0.1909
   44TAL   C220 6842  10.299  -1.288   5.310 -0.4113  0.3949  0.1915
   45HTM   C221 6843  10.964  -0.904   5.767  0.0785 -0.3039  0.8596
   45HTM   C222 6844  11.062  -0.822   5.720  0.0315  0.0653  1.3962
   45HTM   C223 6845  11.168  -0.892   5.650  0.1460  0.5651  1.0612
   45HTM   C224 6846  11.149  -1.027   5.645  0.2803  0.5771  0.2686
   45HTM    S23 6847  10.996  -1.077   5.727  0.2724 -0.0467 -0.1185
   46TAL   C225 6848  11.290  -0.814   5.600 -0.3666 -0.2170 -0.9027
   46TAL   C226 6849  11.265  -0.692   5.514 -0.2238  0.1591  0.2225
   46TAL   C227 6850  11.373  -0.589   5.516  0.1169 -0.1670  0.3888
   46TAL   C228 6851  11.522  -0.628   5.525  0.1665 -0.6180 -1.0843
   46TAL   C229 6852  11.612  -0.531   5.584  0.6363  0.5941 -0.0552
   46TAL   C230 6853  11.748  -0.582   5.632  0.5033  0.3511  0.5561
   47HTM   C231 6854  11.224  -1.136   5.571 -0.1607  0.2293 -0.7994
   47HTM   C232 6855  11.203  -1.269   5.593 -0.1415  0.2468 -0.6764
   47HTM   C233 6856  11.300  -1.354   5.529  0.0803  0.2155 -0.3052
   47HTM   C234 6857  11.394  -1.286   5.458  0.2303  0.1742 -0.1453
   47HTM    S24 6858  11.368  -1.108   5.467  0.1018  0.1714 -0.4539
   48TAL   C235 6859  11.290  -1.505   5.553 -0.4416  0.0876  0.1437
   48TAL   C236 6860  11.391  -1.606   5.489 -0.1422 -0.0741  0.1330
   48TAL   C237 6861  11.380  -1.753   5.534  0.1715  0.1163  0.2565
   48TAL   C238 6862  11.428  -1.849   5.432  0.2923  0.1329  0.1708
   48TAL   C239 6863  11.391  -1.990   5.465  0.1695  0.1699  0.1956
   48TAL   C240 6864  11.423  -2.108   5.372 -0.4134 -0.1282 -0.2741
    1HTM     C1 6865   2.614   3.833   1.403 -0.3507  0.0643  0.1852
    1HTM     C2 6866   2.726   3.910   1.414 -0.5101  0.3217  0.0242
    1HTM     C3 6867   2.826   3.854   1.501 -0.2275  0.5149 -0.1754
    1HTM     C4 6868   2.790   3.735   1.557  0.1476  0.4048 -0.1665
    1HTM     S1 6869   2.626   3.684   1.503  0.1730  0.0459  0.0967
    2TAL     C5 6870   2.962   3.920   1.524 -0.5217 -0.3935  0.9211
    2TAL     C6 6871   3.083   3.857   1.453  0.4548  0.2233 -0.1693
    2TAL     C7 6872   3.199   3.827   1.548  0.1372 -0.8399 -0.0644
    2TAL     C8 6873   3.334   3.793   1.488  0.4343 -0.0430 -0.4874
    2TAL     C9 6874   3.449   3.799   1.594  0.5939 -0.8636  0.1590
    2TAL    C10 6875   3.591   3.769   1.560 -0.6925  0.1931 -0.0485
    3HTM    C11 6876   2.852   3.651   1.661  0.0161 -0.3503  0.0147
    3HTM    C12 6877   2.809   3.525   1.692  0.1543 -0.3324  0.2808
    3HTM    C13 6878   2.870   3.471   1.810  0.2300 -0.0236  0.3846
    3HTM    C14 6879   2.959   3.555   1.870  0.1496  0.1940  0.1976
    3HTM     S2 6880   2.973   3.711   1.780 -0.0294  0.0247 -0.1265
    4TAL    C15 6881   2.846   3.331   1.868  0.2469  0.2128 -0.2006
    4TAL    C16 6882   2.743   3.231   1.819 -0.2668  0.1791  0.3309
    4TAL    C17 6883   2.768   3.102   1.895  0.1437  0.4931 -0.3835
    4TAL    C18 6884   2.690   2.985   1.851  0.0393  0.2419  0.2415
    4TAL    C19 6885   2.703   2.870   1.945 -0.4690 -0.1275  0.2340
    4TAL    C20 6886   2.618   2.756   1.895  0.5462 -0.2685  0.1017
    5HTM    C21 6887   3.034   3.547   1.993 -0.2479 -0.1494 -0.3583
    5HTM    C22 6888   3.167   3.575   2.000 -0.2208 -0.2322 -0.5482
    5HTM    C23 6889   3.229   3.532   2.123 -0.0707 -0.2738 -0.6379
    5HTM    C24 6890   3.143   3.472   2.210  0.0164 -0.2231 -0.5164
    5HTM     S3 6891   2.976   3.464   2.142 -0.0848 -0.1177 -0.2771
    6TAL    C25 6892   3.380   3.549   2.157 -0.2536  0.6120  0.1511
    6TAL    C26 6893   3.474   3.614   2.054 -0.2728  0.4951 -0.2615
    6TAL    C27 6894   3.524   3.525   1.941  0.3172 -0.2533  0.0861
    6TAL    C28 6895   3.624   3.410   1.976 -0.5610 -0.0558 -0.3756
    6TAL    C29 6896   3.703   3.342   1.862 -0.5743 -0.3539  0.3142
    6TAL    C30 6897   3.811   3.247   1.900 -0.2239  0.2874 -0.0354
    7HTM    C31 6898   3.160   3.389   2.327  0.0068 -0.0637  0.2020
    7HTM    C32 6899   3.084   3.281   2.364  0.2457 -0.1851  0.3424
    7HTM    C33 6900   3.126   3.221   2.488  0.4677 -0.0170  0.3505
    7HTM    C34 6901   3.233   3.283   2.546  0.3980  0.2325  0.2162
    7HTM     S4 6902   3.291   3.422   2.447  0.0440  0.2747  0.0681
    8TAL    C35 6903   3.047   3.099   2.543 -0.5861 -0.4239  0.4229
    8TAL    C36 6904   2.934   3.039   2.459 -0.1262 -0.1408 -0.0548
    8TAL    C37 6905   2.859   2.931   2.536 -0.3334 -0.1827 -0.3313
    8TAL    C38 6906   2.747   2.853   2.457  0.1882  1.1103 -0.4578
    8TAL    C39 6907   2.797   2.760   2.352 -0.7789  0.0379 -0.0619
    8TAL    C40 6908   2.690   2.675   2.294 -0.7283  0.6881 -0.3764
    9HTM    C41 6909   3.306   3.246   2.670  0.2368  0.0679  0.5633
    9HTM    C42 6910   3.404   3.327   2.721  0.5001 -0.2619  0.5833
    9HTM    C43 6911   3.452   3.285   2.850  0.4625 -0.5275  0.5130
    9HTM    C44 6912   3.390   3.174   2.898  0.1705 -0.4000  0.4396
    9HTM     S5 6913   3.267   3.111   2.783 -0.0815  0.0688  0.4532
   10TAL    C45 6914   3.561   3.352   2.923 -0.3485  0.0196  0.3285
   10TAL    C46 6915   3.665   3.433   2.842 -0.6036  0.0223 -0.1015
   10TAL    C47 6916   3.745   3.348   2.748 -0.4044  0.1185  0.1876
   10TAL    C48 6917   3.868   3.412   2.683  0.7326  0.1009  0.4123
   10TAL    C49 6918   3.990   3.423   2.759  0.3959  0.2144 -0.6931
   10TAL    C50 6919   4.072   3.536   2.705  0.7317  0.5273  0.0653
   11HTM    C51 6920   3.415   3.093   3.018 -0.3364 -0.0519  0.2139
   11HTM    C52 6921   3.313   3.063   3.103 -0.0913  0.0389  0.5436
   11HTM    C53 6922   3.337   2.946   3.184  0.2000  0.2059  0.7021
   11HTM    C54 6923   3.457   2.887   3.160  0.1768  0.2421  0.4935
   11HTM     S6 6924   3.551   2.975   3.033 -0.2177  0.0670  0.0773
   12TAL    C55 6925   3.224   2.901   3.282  0.0425 -0.1579 -0.3617
   12TAL    C56 6926   3.085   2.965   3.281  0.3720 -0.0385  0.0092
   12TAL    C57 6927   3.083   3.091   3.360  0.2115 -0.2390 -0.3997
   12TAL    C58 6928   2.941   3.143   3.371  0.7601 -0.4197  0.0169
   12TAL    C59 6929   2.853   3.059   3.461  0.1174  0.4680  0.2503
   12TAL    C60 6930   2.719   3.124   3.454 -0.0646 -0.3445 -0.5677
   13HTM    C61 6931   3.508   2.760   3.204 -0.2843 -0.4292 -0.1157
   13HTM    C62 6932   3.479   2.692   3.318  0.0660 -0.3636  0.0137
   13HTM    C63 6933   3.559   2.573   3.337  0.4050 -0.1323  0.0435
   13HTM    C64 6934   3.649   2.551   3.236  0.3131 -0.0217 -0.0634
   13HTM     S7 6935   3.639   2.680   3.110 -0.2127 -0.2024 -0.2109
   14TAL    C65 6936   3.544   2.483   3.463  0.5414  0.7678  0.4982
   14TAL    C66 6937   3.405   2.420   3.474 -0.0466  0.1412 -0.5129
   14TAL    C67 6938   3.401   2.325   3.593  0.4714  0.1336 -0.8698
   14TAL    C68 6939   3.263   2.274   3.628 -0.5063  0.3861 -0.1947
   14TAL    C69 6940   3.263   2.164   3.733  0.2739 -0.4162  0.3385
   14TAL    C70 6941   3.134   2.075   3.728  0.3504  0.2261 -0.1973
   15HTM    C71 6942   3.738   2.437   3.208 -0.1743 -0.4162 -0.2547
   15HTM    C72 6943   3.829   2.389   3.297 -0.2264 -0.2180 -0.0923
   15HTM    C73 6944   3.921   2.293   3.240  0.0478 -0.0613  0.0826
   15HTM    C74 6945   3.899   2.269   3.108  0.3089 -0.1399  0.0534
   15HTM     S8 6946   3.760   2.365   3.044  0.2281 -0.4202 -0.1992
   16TAL    C75 6947   4.032   2.232   3.319 -0.4219  0.1674 -0.0473
   16TAL    C76 6948   4.147   2.320   3.369 -0.8558  0.1783  0.2643
   16TAL    C77 6949   4.249   2.359   3.260 -0.4357  0.3974  0.1425
   16TAL    C78 6950   4.294   2.503   3.280  0.6521  0.1995  0.0553
   16TAL    C79 6951   4.374   2.549   3.160  0.3153 -0.2530 -0.0449
   16TAL    C80 6952   4.400   2.697   3.164 -0.9809 -0.7674  0.4185
   17HTM    C81 6953   3.959   2.178   3.021  0.0666  0.0540 -0.4172
   17HTM    C82 6954   4.056   2.207   2.929  0.2880 -0.1026 -0.2335
   17HTM    C83 6955   4.108   2.090   2.863  0.4153 -0.2122  0.0551
   17HTM    C84 6956   4.051   1.973   2.904  0.2909 -0.1391  0.0917
   17HTM     S9 6957   3.927   2.001   3.031  0.0009  0.0755 -0.2387
   18TAL    C85 6958   4.204   2.102   2.746 -0.3854  0.0715 -0.7860
   18TAL    C86 6959   4.350   2.138   2.785  0.1836 -0.7636  0.2429
   18TAL    C87 6960   4.457   2.102   2.674 -0.1045 -0.3514 -0.5008
   18TAL    C88 6961   4.466   1.964   2.604  0.3942  0.0278 -0.7419
   18TAL    C89 6962   4.459   1.842   2.704 -0.1435 -0.1609  0.9232
   18TAL    C90 6963   4.425   1.711   2.634  0.0143 -0.2911 -0.9622
   19HTM    C91 6964   4.056   1.841   2.845  0.2243  0.0530 -0.3136
   19HTM    C92 6965   3.961   1.782   2.766  0.4876  0.3941 -0.8905
   19HTM    C93 6966   3.988   1.644   2.736  0.2630  0.3479 -0.8781
   19HTM    C94 6967   4.103   1.597   2.792 -0.1710 -0.0286 -0.2916
   19HTM    S10 6968   4.187   1.725   2.888 -0.3317 -0.3564  0.2948
   20TAL    C95 6969   3.898   1.559   2.650  0.1731  0.4219  0.0917
   20TAL    C96 6970   3.770   1.611   2.590  0.3663  0.3631  0.1742
   20TAL    C97 6971   3.717   1.506   2.503 -0.0970 -0.3070 -0.2037
   20TAL    C98 6972   3.588   1.550   2.436 -0.2356 -0.3028 -0.0038
   20TAL    C99 6973   3.531   1.429   2.364  0.7128  0.2775 -0.4032
   20TAL   C100 6974   3.403   1.472   2.298  0.0959  0.2542 -0.2269
   21HTM   C101 6975   4.169   1.465   2.792  0.2403  0.0133  0.0707
   21HTM   C102 6976   4.262   1.431   2.886  0.0803 -0.0185  0.2195
   21HTM   C103 6977   4.304   1.293   2.880 -0.0846 -0.0762  0.3980
   21HTM   C104 6978   4.242   1.222   2.781 -0.0499 -0.0885  0.3853
   21HTM    S11 6979   4.126   1.324   2.688  0.1951 -0.0276  0.1450
   22TAL   C105 6980   4.401   1.237   2.986 -0.0498  0.1578 -0.1186
   22TAL   C106 6981   4.551   1.247   2.970 -0.3840 -0.1059  0.0578
   22TAL   C107 6982   4.620   1.371   3.025 -0.3989 -0.9161 -0.2006
   22TAL   C108 6983   4.579   1.509   2.975 -0.6568 -0.2336  0.8441
   22TAL   C109 6984   4.617   1.629   3.066  0.2300  0.6429  0.4823
   22TAL   C110 6985   4.760   1.660   3.090 -1.0681  0.7353  0.1774
   23HTM   C111 6986   4.272   1.080   2.754  0.2815 -0.1071  0.2592
   23HTM   C112 6987   4.392   1.026   2.719  0.2670 -0.1373  0.2557
   23HTM   C113 6988   4.388   0.883   2.702  0.2372 -0.1397  0.2834
   23HTM   C114 6989   4.265   0.828   2.724  0.2287 -0.1115  0.3078
   23HTM    S12 6990   4.144   0.954   2.768  0.2582 -0.0792  0.2978
   24TAL   C115 6991   4.520   0.820   2.663  0.3278 -0.6043  0.1469
   24TAL   C116 6992   4.534   0.677   2.611 -0.0278  0.1655 -0.1298
   24TAL   C117 6993   4.453   0.630   2.481 -0.1387 -0.7630  0.1110
   24TAL   C118 6994   4.423   0.739   2.370  0.3710 -0.1127 -0.0415
   24TAL   C119 6995   4.322   0.690   2.270  0.1148  0.3045  0.9437
   24TAL   C120 6996   4.279   0.788   2.167 -0.0638  0.0926  0.0777
   25HTM   C121 6997   4.214   0.690   2.719 -0.1314  0.2762 -0.0004
   25HTM   C122 6998   4.277   0.576   2.760  0.1502  0.3762 -0.1488
   25HTM   C123 6999   4.197   0.457   2.745  0.3350  0.2365 -0.0336
   25HTM   C124 7000   4.073   0.481   2.692  0.1942  0.0299  0.2024
   25HTM    S13 7001   4.048   0.656   2.658 -0.1855 -0.0045  0.2985
   26TAL   C125 7002   4.246   0.320   2.786 -0.0278 -0.5574 -0.5742
   26TAL   C126 7003   4.385   0.325   2.850 -0.2387  0.3533 -0.0334
   26TAL   C127 7004   4.462   0.198   2.870  0.2957  0.4657  0.0784
   26TAL   C128 7005   4.601   0.247   2.913 -0.5992  0.2220  0.2089
   26TAL   C129 7006   4.712   0.149   2.954  0.3739  0.4370  0.1058
   26TAL   C130 7007   4.840   0.225   2.982  0.0461  0.2888  0.0249
   27HTM   C131 7008   3.963   0.393   2.677  0.1122 -0.0066  0.2303
   27HTM   C132 7009   3.955   0.272   2.614  0.1994  0.1272 -0.0360
   27HTM   C133 7010   3.824   0.211   2.622  0.1702  0.1390 -0.3991
   27HTM   C134 7011   3.733   0.285   2.691  0.0610  0.0142 -0.4099
   27HTM    S14 7012   3.805   0.438   2.753 -0.0144 -0.1290  0.0416
   28TAL   C135 7013   3.786   0.080   2.556  0.0826 -0.1513 -0.3335
   28TAL   C136 7014   3.876  -0.011   2.477 -0.0015  0.5550  0.5194
   28TAL   C137 7015   4.012  -0.047   2.531  0.1091  0.5827  0.1719
   28TAL   C138 7016   4.016  -0.121   2.665 -0.1122 -0.1646  0.5040
   28TAL   C139 7017   4.153  -0.162   2.707 -0.1361  0.2193 -0.2740
   28TAL   C140 7018   4.164  -0.214   2.851  0.1263  0.6762  0.4760
   29HTM   C141 7019   3.596   0.256   2.722  0.2683 -0.5256 -0.1521
   29HTM   C142 7020   3.548   0.250   2.850  0.2640 -0.3427 -0.1447
   29HTM   C143 7021   3.411   0.208   2.858  0.1898 -0.0891 -0.1057
   29HTM   C144 7022   3.354   0.183   2.737  0.1373 -0.0786 -0.0834
   29HTM    S15 7023   3.470   0.209   2.602  0.1780 -0.3906 -0.1101
   30TAL   C145 7024   3.350   0.191   2.998  0.1205 -0.1952  0.5025
   30TAL   C146 7025   3.365   0.056   3.072 -0.4430  0.5681 -0.0264
   30TAL   C147 7026   3.299   0.041   3.206 -0.3469  0.0443 -0.0012
   30TAL   C148 7027   3.153   0.075   3.225  0.6869 -0.1962 -0.8601
   30TAL   C149 7028   3.048  -0.026   3.176  0.2224  0.3723  0.2620
   30TAL   C150 7029   3.028  -0.143   3.279 -0.3984  0.3309  0.8109
   31HTM   C151 7030   3.238   0.100   2.721  0.1321 -0.4885  0.0077
   31HTM   C152 7031   3.233  -0.020   2.657 -0.2681 -0.5298  0.1155
   31HTM   C153 7032   3.103  -0.081   2.660 -0.4191 -0.2027  0.3688
   31HTM   C154 7033   3.009  -0.008   2.726 -0.1340  0.0885  0.4541
   31HTM    S16 7034   3.078   0.146   2.791  0.3512 -0.0292  0.2196
   32TAL   C155 7035   3.070  -0.215   2.599  0.3189 -0.1757  0.0977
   32TAL   C156 7036   3.152  -0.339   2.634  0.5251 -0.4911 -0.7729
   32TAL   C157 7037   3.193  -0.355   2.782 -0.1854 -0.8852 -0.0707
   32TAL   C158 7038   3.302  -0.471   2.805  0.1716 -0.0796  0.3541
   32TAL   C159 7039   3.253  -0.612   2.777 -0.3372  0.0286  0.1420
   32TAL   C160 7040   3.348  -0.712   2.838  0.2105  0.5018 -0.7375
   33HTM   C161 7041   2.866  -0.027   2.758 -0.0549  0.1214  0.3010
   33HTM   C162 7042   2.767   0.065   2.748  0.1193  0.3462  0.6559
   33HTM   C163 7043   2.634   0.010   2.762  0.0222  0.5693  0.6269
   33HTM   C164 7044   2.633  -0.125   2.782 -0.2259  0.5151  0.2498
   33HTM    S17 7045   2.800  -0.193   2.785 -0.3572  0.1749 -0.1008
   34TAL   C165 7046   2.505   0.083   2.741  0.3259 -1.0085 -0.1265
   34TAL   C166 7047   2.497   0.225   2.796  0.2029  0.5515  0.4658
   34TAL   C167 7048   2.363   0.283   2.748  0.4384 -0.5065  0.9017
   34TAL   C168 7049   2.356   0.424   2.805 -0.0679  0.3043 -0.2671
   34TAL   C169 7050   2.230   0.492   2.757  0.0378 -0.6102 -0.2543
   34TAL   C170 7051   2.200   0.619   2.838 -0.2332  0.3337  0.4840
   35HTM   C171 7052   2.526  -0.224   2.803  0.1250 -0.0937 -0.2033
   35HTM   C172 7053   2.394  -0.198   2.822  0.1252  0.0567 -0.4104
   35HTM   C173 7054   2.310  -0.316   2.815  0.0122  0.1392 -0.4612
   35HTM   C174 7055   2.379  -0.431   2.791 -0.0738  0.0528 -0.2929
   35HTM    S18 7056   2.556  -0.400   2.775 -0.0186 -0.1420 -0.0550
   36TAL   C175 7057   2.156  -0.307   2.850 -0.2909 -0.0834  1.3057
   36TAL   C176 7058   2.084  -0.179   2.882  0.2334 -0.0795  0.2408
   36TAL   C177 7059   2.074  -0.076   2.772 -0.4859  0.4254  0.2955
   36TAL   C178 7060   2.055   0.073   2.785  0.7250 -0.0152  0.0676
   36TAL   C179 7061   2.008   0.156   2.659 -0.0596 -0.1582  0.0000
   36TAL   C180 7062   2.072   0.125   2.519 -0.3943  0.1322  0.3228
   37HTM   C181 7063   2.332  -0.563   2.750 -0.2229 -0.2771  0.6045
   37HTM   C182 7064   2.228  -0.605   2.673 -0.2682 -0.1383  0.5893
   37HTM   C183 7065   2.227  -0.748   2.650 -0.1355 -0.0644  0.1135
   37HTM   C184 7066   2.331  -0.814   2.709  0.0108 -0.1466 -0.2341
   37HTM    S19 7067   2.439  -0.700   2.799 -0.0073 -0.3254  0.0144
   38TAL   C185 7068   2.121  -0.825   2.561  0.5601  0.0538  0.0091
   38TAL   C186 7069   2.017  -0.741   2.485 -0.4761 -0.0466  0.1684
   38TAL   C187 7070   1.915  -0.829   2.411  0.6352  0.0696 -0.0007
   38TAL   C188 7071   1.835  -0.732   2.323  0.2080  0.5692  0.2476
   38TAL   C189 7072   1.715  -0.790   2.243 -0.2311  0.0263 -0.1145
   38TAL   C190 7073   1.602  -0.850   2.328  0.3996  0.3438  0.0957
   39HTM   C191 7074   2.357  -0.957   2.720  0.1662  0.0178  0.2731
   39HTM   C192 7075   2.356  -1.034   2.832  0.7648 -0.1001  0.1996
   39HTM   C193 7076   2.391  -1.172   2.808  0.9804  0.0005 -0.0721
   39HTM   C194 7077   2.418  -1.200   2.677  0.5462  0.1953 -0.2058
   39HTM    S20 7078   2.402  -1.053   2.574 -0.1743  0.2677  0.0029
   40TAL   C195 7079   2.394  -1.282   2.915  0.5935 -0.3491 -0.1991
   40TAL   C196 7080   2.278  -1.282   3.017  0.0590 -0.1619  0.2822
   40TAL   C197 7081   2.256  -1.398   3.107  0.1822  0.0936  0.3871
   40TAL   C198 7082   2.198  -1.513   3.026  0.1819 -0.2199 -0.2547
   40TAL   C199 7083   2.302  -1.604   2.955 -0.1186  0.1432  0.3897
   40TAL   C200 7084   2.228  -1.718   2.887 -0.3760  0.2417 -0.6889
   41HTM   C201 7085   2.466  -1.322   2.621  0.1721  0.2775 -0.2880
   41HTM   C202 7086   2.598  -1.356   2.614  0.1658  0.1762  0.0757
   41HTM   C203 7087   2.620  -1.494   2.579  0.1515  0.0710  0.4834
   41HTM   C204 7088   2.504  -1.565   2.560  0.1473  0.0924  0.4306
   41HTM    S21 7089   2.359  -1.462   2.584  0.1608  0.2483 -0.1423
   42TAL   C205 7090   2.762  -1.544   2.572 -0.5946  0.0346  0.1225
   42TAL   C206 7091   2.851  -1.544   2.697 -0.2617 -0.3736  0.5709
   42TAL   C207 7092   2.797  -1.552   2.842  0.1125  0.2355  0.3373
   42TAL   C208 7093   2.687  -1.656   2.881  1.1819  0.1100  0.6380
   42TAL   C209 7094   2.725  -1.809   2.857 -0.4352  0.1628  0.0025
   42TAL   C210 7095   2.614  -1.906   2.889 -0.0822  0.0508  0.0023
   43HTM   C211 7096   2.493  -1.708   2.536  0.3074 -0.2547  1.0065
   43HTM   C212 7097   2.378  -1.772   2.570  0.5654 -0.6130  1.2169
   43HTM   C213 7098   2.385  -1.916   2.558  0.6994 -0.5376  0.2936
   43HTM   C214 7099   2.507  -1.961   2.516  0.5438 -0.1222 -0.6209
   43HTM    S22 7100   2.622  -1.825   2.487  0.2132  0.2093 -0.3848
   44TAL   C215 7101   2.265  -2.005   2.593  0.4458  0.2907  0.6126
   44TAL   C216 7102   2.127  -1.963   2.552  0.1611  0.5055  0.2476
   44TAL   C217 7103   2.023  -2.074   2.570  0.3901 -0.2069 -0.2244
   44TAL   C218 7104   1.889  -2.037   2.539 -0.1028 -0.2150  0.3920
   44TAL   C219 7105   1.784  -2.115   2.613 -0.1308  0.0961  0.4855
   44TAL   C220 7106   1.639  -2.099   2.561 -0.5053 -0.0621 -0.3342
   45HTM   C221 7107   2.570  -2.095   2.516  0.0965 -0.0148  0.0825
   45HTM   C222 7108   2.692  -2.130   2.467  0.1442 -0.1225  0.2769
   45HTM   C223 7109   2.715  -2.272   2.463  0.0179 -0.1433  0.2954
   45HTM   C224 7110   2.610  -2.345   2.508 -0.1262 -0.0510  0.1149
   45HTM    S23 7111   2.473  -2.240   2.561 -0.1134  0.0700 -0.0937
   46TAL   C225 7112   2.856  -2.337   2.427  0.7709  0.0780  0.3130
   46TAL   C226 7113   2.972  -2.244   2.388 -0.5235  0.0178  0.6534
   46TAL   C227 7114   3.084  -2.329   2.330  0.2020  0.0770  0.1488
   46TAL   C228 7115   3.201  -2.263   2.259 -0.0052 -0.6072  0.4259
   46TAL   C229 7116   3.280  -2.160   2.342 -0.5811  0.1963 -0.2619
   46TAL   C230 7117   3.358  -2.073   2.239  0.4742  0.2048  0.1413
   47HTM   C231 7118   2.604  -2.488   2.539 -0.0144  0.3382 -0.4208
   47HTM   C232 7119   2.705  -2.579   2.552  0.0267  0.4187 -0.1760
   47HTM   C233 7120   2.665  -2.702   2.615  0.1172  0.6258  0.2971
   47HTM   C234 7121   2.533  -2.705   2.649  0.1454  0.7037  0.4129
   47HTM    S24 7122   2.449  -2.552   2.605  0.0590  0.5197 -0.0701
   48TAL   C235 7123   2.767  -2.807   2.642 -0.3163 -0.1150  0.5229
   48TAL   C236 7124   2.739  -2.953   2.684  0.1571 -0.9047  0.2171
   48TAL   C237 7125   2.636  -3.040   2.614  0.2433 -0.1392  0.6292
   48TAL   C238 7126   2.624  -3.173   2.680 -0.1938 -0.0716  0.3810
   48TAL   C239 7127   2.734  -3.269   2.638 -0.1749 -0.4685 -0.1405
   48TAL   C240 7128   2.697  -3.410   2.677  0.6459  0.3231  0.0185
    1HTM     C1 7129   6.818   4.207   7.225  0.0251  0.3873 -0.0076
    1HTM     C2 7130   6.909   4.267   7.308  0.1118  0.3157 -0.0508
    1HTM     C3 7131   7.023   4.184   7.339 -0.0594  0.1326  0.0939
    1HTM     C4 7132   7.019   4.062   7.280 -0.2764  0.0648  0.2470
    1HTM     S1 7133   6.871   4.040   7.180 -0.2818  0.2279  0.2204
    2TAL     C5 7134   7.145   4.247   7.406 -0.0795 -0.5813 -0.3045
    2TAL     C6 7135   7.219   4.336   7.309  0.9500 -0.3784 -0.5550
    2TAL     C7 7136   7.309   4.263   7.211 -0.2086 -0.5216 -0.1996
    2TAL     C8 7137   7.421   4.186   7.273 -0.3915  0.5989 -0.7221
    2TAL     C9 7138   7.489   4.099   7.167 -0.4584  0.2491 -0.0116
    2TAL    C10 7139   7.603   4.020   7.230 -0.1756  0.2122 -0.9717
    3HTM    C11 7140   7.122   3.957   7.286  0.1997  0.1058 -0.1038
    3HTM    C12 7141   7.171   3.885   7.180  0.2477  0.0001 -0.0093
    3HTM    C13 7142   7.267   3.785   7.218  0.1163 -0.0647  0.1528
    3HTM    C14 7143   7.291   3.780   7.352 -0.0320 -0.0087  0.1817
    3HTM     S2 7144   7.194   3.903   7.442 -0.0174  0.1316  0.0059
    4TAL    C15 7145   7.336   3.716   7.097  0.6524 -0.2576  0.5333
    4TAL    C16 7146   7.415   3.591   7.107 -0.0951  0.3896 -0.6696
    4TAL    C17 7147   7.336   3.466   7.148 -0.0502  1.2251 -0.3437
    4TAL    C18 7148   7.428   3.350   7.169 -0.0196 -0.5333 -0.2717
    4TAL    C19 7149   7.355   3.218   7.185  0.3031 -0.2726  0.0453
    4TAL    C20 7150   7.457   3.106   7.203 -0.1278 -0.0832 -0.3227
    5HTM    C21 7151   7.372   3.691   7.427 -0.2870  0.0888  0.1766
    5HTM    C22 7152   7.333   3.586   7.504 -0.2184 -0.1956 -0.1724
    5HTM    C23 7153   7.443   3.503   7.548 -0.1540 -0.2111 -0.3595
    5HTM    C24 7154   7.565   3.546   7.505 -0.1736  0.0615 -0.1530
    5HTM     S3 7155   7.551   3.694   7.403 -0.2754  0.3613  0.2971
    6TAL    C25 7156   7.413   3.393   7.647 -0.2537  0.1285  0.8917
    6TAL    C26 7157   7.330   3.274   7.600  0.1571  0.0209 -0.0590
    6TAL    C27 7158   7.336   3.147   7.689 -0.3085  0.6041 -0.4480
    6TAL    C28 7159   7.467   3.066   7.709 -0.0185 -0.5922 -1.0901
    6TAL    C29 7160   7.548   3.021   7.590 -0.0322  0.1641  0.3561
    6TAL    C30 7161   7.483   2.917   7.499 -0.3795 -0.1668 -0.1925
    7HTM    C31 7162   7.694   3.478   7.506 -0.0337 -0.4601  0.0987
    7HTM    C32 7163   7.816   3.519   7.551 -0.1171 -0.5531  0.4122
    7HTM    C33 7164   7.922   3.427   7.522 -0.0474 -0.4483  0.3333
    7HTM    C34 7165   7.882   3.315   7.455  0.0892 -0.2750 -0.0405
    7HTM     S4 7166   7.704   3.318   7.423  0.1407 -0.2308 -0.3236
    8TAL    C35 7167   8.066   3.446   7.572  0.5114 -0.3414 -0.0516
    8TAL    C36 7168   8.101   3.413   7.717  0.2543 -0.5985 -0.2144
    8TAL    C37 7169   8.073   3.273   7.781 -0.2113 -0.1308  0.1989
    8TAL    C38 7170   8.133   3.145   7.719 -0.7956 -0.5785 -0.1230
    8TAL    C39 7171   8.076   3.014   7.770  0.0894  0.3539 -0.2495
    8TAL    C40 7172   7.934   2.989   7.726  0.3175  0.5353  0.9107
    9HTM    C41 7173   7.957   3.200   7.411 -0.1119 -0.0857 -0.1259
    9HTM    C42 7174   7.895   3.083   7.377 -0.1948 -0.0335 -0.1533
    9HTM    C43 7175   7.979   2.992   7.305 -0.2258 -0.1243 -0.0744
    9HTM    C44 7176   8.106   3.038   7.284 -0.1665 -0.2461  0.0134
    9HTM     S5 7177   8.128   3.203   7.354 -0.0658 -0.2553  0.0027
   10TAL    C45 7178   7.927   2.857   7.271  0.5694  0.5613  0.4928
   10TAL    C46 7179   7.960   2.743   7.370 -0.0859  0.4639  0.4586
   10TAL    C47 7180   7.901   2.607   7.327 -0.7766 -0.4563 -0.2268
   10TAL    C48 7181   7.969   2.507   7.414  0.3792  0.4126 -0.0744
   10TAL    C49 7182   7.930   2.370   7.364 -0.2429 -0.4916 -0.0836
   10TAL    C50 7183   7.961   2.266   7.467  0.2578 -0.1927 -0.2613
   11HTM    C51 7184   8.211   2.991   7.195 -0.2930 -0.2249 -0.2360
   11HTM    C52 7185   8.221   2.872   7.128 -0.3166 -0.2106 -0.2651
   11HTM    C53 7186   8.329   2.868   7.033 -0.2909 -0.2246 -0.2348
   11HTM    C54 7187   8.402   2.983   7.028 -0.2473 -0.2497 -0.1824
   11HTM     S6 7188   8.339   3.107   7.143 -0.2351 -0.2576 -0.1672
   12TAL    C55 7189   8.364   2.746   6.945 -0.7101 -0.1720 -0.3237
   12TAL    C56 7190   8.321   2.603   6.976  0.0642  0.0804  0.4192
   12TAL    C57 7191   8.178   2.557   6.939 -0.4491 -0.4915 -0.8631
   12TAL    C58 7192   8.146   2.424   6.997  0.5216  0.7487 -0.1721
   12TAL    C59 7193   8.025   2.354   6.930  0.1263  0.6479  0.3306
   12TAL    C60 7194   7.971   2.223   6.991  0.0799  0.0821 -0.2817
   13HTM    C61 7195   8.510   3.038   6.943  0.1407  0.1166  0.4777
   13HTM    C62 7196   8.617   2.978   6.884  0.0005 -0.0103  0.3526
   13HTM    C63 7197   8.716   3.071   6.834  0.0157 -0.1246  0.1676
   13HTM    C64 7198   8.684   3.201   6.856  0.1673 -0.0849  0.1519
   13HTM     S7 7199   8.526   3.218   6.941  0.3040  0.1015  0.3709
   14TAL    C65 7200   8.836   3.001   6.770  0.5980 -0.3144 -0.1183
   14TAL    C66 7201   8.967   3.077   6.740 -0.0971 -0.0967  0.3754
   14TAL    C67 7202   9.080   2.993   6.682 -0.3270  0.2271 -0.1500
   14TAL    C68 7203   9.201   3.073   6.634 -0.2539 -0.5569  0.2166
   14TAL    C69 7204   9.285   3.153   6.735  0.1658  0.0325 -0.3897
   14TAL    C70 7205   9.409   3.229   6.681  0.5350  0.4808 -0.2183
   15HTM    C71 7206   8.765   3.316   6.861  0.4287 -0.0841  0.1598
   15HTM    C72 7207   8.839   3.384   6.769  0.3877 -0.0823  0.1285
   15HTM    C73 7208   8.894   3.508   6.819  0.1779  0.0541  0.0222
   15HTM    C74 7209   8.861   3.534   6.949  0.0594  0.1562 -0.0275
   15HTM     S8 7210   8.759   3.403   7.019  0.2038  0.0873  0.0569
   16TAL    C75 7211   8.993   3.609   6.750  0.4990  0.8276 -0.5461
   16TAL    C76 7212   9.076   3.563   6.626  0.3305 -0.0467  0.1045
   16TAL    C77 7213   9.124   3.674   6.536  0.6319  0.0805 -0.0070
   16TAL    C78 7214   9.223   3.628   6.428  0.0506 -0.9788  0.3136
   16TAL    C79 7215   9.339   3.546   6.468  0.2036  0.5674 -0.2745
   16TAL    C80 7216   9.425   3.605   6.584 -0.2282  0.1278  0.0739
   17HTM    C81 7217   8.897   3.642   7.040 -0.1187 -0.1082  0.4684
   17HTM    C82 7218   8.815   3.706   7.128 -0.0343 -0.0885  0.5329
   17HTM    C83 7219   8.883   3.801   7.211  0.0448 -0.0587  0.4354
   17HTM    C84 7220   9.017   3.809   7.188  0.0204 -0.0558  0.2966
   17HTM     S9 7221   9.068   3.697   7.056 -0.1053 -0.0908  0.2777
   18TAL    C85 7222   8.810   3.894   7.303  0.7043  0.0195  0.0667
   18TAL    C86 7223   8.770   4.032   7.253  0.3795  0.8968 -0.2909
   18TAL    C87 7224   8.683   4.120   7.344 -0.0549 -0.4454 -0.5119
   18TAL    C88 7225   8.741   4.160   7.481 -0.1446 -0.0674  0.3046
   18TAL    C89 7226   8.666   4.274   7.546  0.5608 -0.2000  0.1195
   18TAL    C90 7227   8.753   4.346   7.641 -0.4461  0.2957  0.0054
   19HTM    C91 7228   9.124   3.872   7.261  0.1476  0.0662  0.0686
   19HTM    C92 7229   9.156   4.003   7.276  0.0456  0.1009 -0.0124
   19HTM    C93 7230   9.282   4.025   7.343 -0.0180  0.2410  0.0632
   19HTM    C94 7231   9.346   3.909   7.379  0.0355  0.3130  0.2016
   19HTM    S10 7232   9.251   3.764   7.330  0.1714  0.2084  0.2477
   20TAL    C95 7233   9.333   4.166   7.351  0.1542  0.1132 -0.9033
   20TAL    C96 7234   9.312   4.253   7.477  0.0440  0.6597  0.4692
   20TAL    C97 7235   9.171   4.273   7.534  0.3308 -0.2047  0.0779
   20TAL    C98 7236   9.147   4.393   7.632 -0.6028 -0.6784  0.0029
   20TAL    C99 7237   9.210   4.374   7.770 -0.1768  0.2777  0.0657
   20TAL   C100 7238   9.172   4.482   7.876  0.7834  0.1077 -0.3578
   21HTM   C101 7239   9.482   3.888   7.420 -0.0279  0.3753 -0.0952
   21HTM   C102 7240   9.579   3.837   7.339  0.0123  0.6778 -0.2375
   21HTM   C103 7241   9.697   3.794   7.410  0.0102  0.4894 -0.3474
   21HTM   C104 7242   9.690   3.812   7.545 -0.0318  0.0432 -0.2888
   21HTM    S11 7243   9.532   3.885   7.594 -0.0720 -0.1752 -0.0890
   22TAL   C105 7244   9.822   3.741   7.334  0.6345 -0.0419 -0.9161
   22TAL   C106 7245   9.823   3.696   7.183 -0.5564 -0.3672 -0.3500
   22TAL   C107 7246   9.788   3.811   7.088 -0.1027 -0.8490  0.5102
   22TAL   C108 7247   9.782   3.750   6.949 -0.0691 -0.6326  0.4793
   22TAL   C109 7248   9.749   3.861   6.849 -0.0788  0.2396  0.2282
   22TAL   C110 7249   9.769   3.798   6.713 -0.8073 -0.1055  0.0711
   23HTM   C111 7250   9.770   3.761   7.651 -0.2142 -0.1450 -0.1336
   23HTM   C112 7251   9.775   3.795   7.783 -0.5091 -0.1950 -0.1090
   23HTM   C113 7252   9.867   3.715   7.860 -0.4411 -0.0125  0.0007
   23HTM   C114 7253   9.931   3.619   7.787 -0.0943  0.1767  0.0594
   23HTM    S12 7254   9.881   3.624   7.614  0.1755  0.1388 -0.0198
   24TAL   C115 7255   9.886   3.734   8.004  0.1145 -0.6619 -0.0195
   24TAL   C116 7256   9.782   3.815   8.092 -0.3962 -0.0437 -0.3455
   24TAL   C117 7257   9.645   3.752   8.109  0.6963  0.3029  0.0204
   24TAL   C118 7258   9.540   3.804   8.206  0.5262 -1.5598 -0.9482
   24TAL   C119 7259   9.599   3.833   8.342 -0.0175 -0.4107  0.0700
   24TAL   C120 7260   9.536   3.927   8.443 -0.6637  0.3701 -0.0399
   25HTM   C121 7261  10.000   3.504   7.836 -0.0093 -0.0936  0.0771
   25HTM   C122 7262  10.130   3.496   7.877  0.1147 -0.2532 -0.3409
   25HTM   C123 7263  10.181   3.361   7.883  0.0665 -0.2947 -0.7989
   25HTM   C124 7264  10.090   3.267   7.847 -0.0944 -0.1667 -0.7295
   25HTM    S13 7265   9.932   3.341   7.802 -0.1981  0.0175 -0.0765
   26TAL   C125 7266  10.319   3.339   7.939 -0.0029  0.4438  0.0755
   26TAL   C126 7267  10.347   3.330   8.091 -0.0959  0.3454  0.0899
   26TAL   C127 7268  10.225   3.288   8.188  0.2899  0.8841  0.3379
   26TAL   C128 7269  10.101   3.376   8.211  0.0197  0.0347  0.5843
   26TAL   C129 7270   9.998   3.310   8.290  0.5299  0.6095 -0.1580
   26TAL   C130 7271   9.870   3.398   8.278 -0.0919 -0.2489  0.3457
   27HTM   C131 7272  10.095   3.118   7.829 -0.0066 -0.0044 -0.0489
   27HTM   C132 7273   9.991   3.038   7.791  0.1118 -0.0794 -0.2205
   27HTM   C133 7274  10.028   2.902   7.765  0.2883 -0.0046 -0.3588
   27HTM   C134 7275  10.161   2.877   7.782  0.3045  0.1275 -0.2927
   27HTM    S14 7276  10.250   3.025   7.834  0.0963  0.1680 -0.0484
   28TAL   C135 7277   9.918   2.800   7.736  0.3309  0.1555 -0.3507
   28TAL   C136 7278   9.811   2.779   7.840  0.2460 -0.1437 -0.6166
   28TAL   C137 7279   9.863   2.713   7.965 -0.0300  0.1091  0.0815
   28TAL   C138 7280   9.817   2.788   8.088  0.1804  0.6925  0.0826
   28TAL   C139 7281   9.878   2.921   8.119  0.0001  0.5985 -0.1187
   28TAL   C140 7282   9.845   2.967   8.261 -0.1779  0.3014  0.4491
   29HTM   C141 7283  10.237   2.755   7.754 -0.1441  0.1289 -0.2696
   29HTM   C142 7284  10.368   2.756   7.718 -0.1077  0.2656 -0.1347
   29HTM   C143 7285  10.424   2.624   7.701  0.1014  0.3211  0.1216
   29HTM   C144 7286  10.336   2.523   7.725  0.2243  0.2270  0.1825
   29HTM    S15 7287  10.173   2.587   7.770  0.0845  0.0593 -0.0815
   30TAL   C145 7288  10.566   2.601   7.648  0.4651 -0.4788  0.3989
   30TAL   C146 7289  10.641   2.722   7.609  0.0803  0.4677 -0.5750
   30TAL   C147 7290  10.769   2.689   7.542 -0.0841 -0.0688  0.2886
   30TAL   C148 7291  10.829   2.821   7.492 -0.1706  0.0878 -0.2687
   30TAL   C149 7292  10.967   2.784   7.437 -0.1950 -0.7652  0.2666
   30TAL   C150 7293  11.043   2.896   7.391  0.1167 -0.7779 -1.1674
   31HTM   C151 7294  10.351   2.375   7.729  0.3490 -0.0167 -0.0691
   31HTM   C152 7295  10.254   2.291   7.772  0.1452  0.3555  0.2012
   31HTM   C153 7296  10.285   2.152   7.754 -0.2099  0.2216  0.6008
   31HTM   C154 7297  10.407   2.130   7.697 -0.2769 -0.2528  0.6354
   31HTM    S16 7298  10.492   2.285   7.661  0.1063 -0.5696  0.1622
   32TAL   C155 7299  10.193   2.038   7.790 -0.0581 -0.7582  0.3011
   32TAL   C156 7300  10.069   2.025   7.707  0.2500 -0.2494  0.3808
   32TAL   C157 7301  10.105   1.987   7.562 -1.0672 -0.2565 -0.1077
   32TAL   C158 7302  10.154   1.852   7.522 -0.6846 -0.3115  0.4692
   32TAL   C159 7303  10.190   1.833   7.373 -0.2953  0.3680  0.7806
   32TAL   C160 7304  10.250   1.693   7.353 -0.5159 -0.2037  0.3268
   33HTM   C161 7305  10.482   2.012   7.649  0.5315  0.0273  0.0206
   33HTM   C162 7306  10.568   2.001   7.544  0.5315 -0.2922  0.0536
   33HTM   C163 7307  10.607   1.865   7.516  0.0366 -0.4417  0.0675
   33HTM   C164 7308  10.552   1.773   7.599 -0.3408 -0.2363  0.0442
   33HTM    S17 7309  10.444   1.851   7.721 -0.0985  0.1650  0.0033
   34TAL   C165 7310  10.711   1.841   7.403 -0.4926 -0.7388 -0.0887
   34TAL   C166 7311  10.653   1.789   7.275  0.6013 -0.3334  0.0922
   34TAL   C167 7312  10.750   1.756   7.162  0.1325  0.4106  0.0239
   34TAL   C168 7313  10.679   1.681   7.049  0.7231  0.4032 -0.6948
   34TAL   C169 7314  10.595   1.552   7.083  0.0127 -0.1610 -0.7948
   34TAL   C170 7315  10.653   1.442   7.165  0.4717  0.2763 -0.2797
   35HTM   C171 7316  10.574   1.635   7.616 -0.0565  0.0605 -0.3254
   35HTM   C172 7317  10.484   1.538   7.648 -0.2803  0.0744 -0.8883
   35HTM   C173 7318  10.539   1.405   7.644 -0.3797  0.0346 -0.9184
   35HTM   C174 7319  10.670   1.400   7.609 -0.2318 -0.0095 -0.3783
   35HTM    S18 7320  10.736   1.565   7.577  0.0469 -0.0043  0.2145
   36TAL   C175 7321  10.448   1.287   7.673  0.3551  0.4413 -0.0753
   36TAL   C176 7322  10.430   1.180   7.562  0.0779  0.1596 -0.8854
   36TAL   C177 7323  10.402   1.219   7.419  0.3734 -0.6234 -0.0524
   36TAL   C178 7324  10.391   1.114   7.310  0.0210 -0.2360 -0.2733
   36TAL   C179 7325  10.504   1.019   7.307 -0.0303 -0.7557  0.5540
   36TAL   C180 7326  10.508   0.935   7.183  0.0276 -0.7630 -0.2664
   37HTM   C181 7327  10.772   1.299   7.603  0.3348 -0.1335  0.0119
   37HTM   C182 7328  10.882   1.299   7.523  0.3566 -0.0766  0.0422
   37HTM   C183 7329  10.953   1.174   7.521  0.2621 -0.1273 -0.1602
   37HTM   C184 7330  10.896   1.078   7.599  0.1683 -0.2229 -0.3449
   37HTM    S19 7331  10.748   1.139   7.682  0.1922 -0.2567 -0.2771
   38TAL   C185 7332  11.073   1.163   7.421  0.3508 -0.2690  0.4128
   38TAL   C186 7333  11.044   1.160   7.268  0.2327 -0.1054 -0.0314
   38TAL   C187 7334  10.942   1.059   7.214  0.9639 -0.4344  0.2861
   38TAL   C188 7335  10.973   0.911   7.247  0.2338  0.5609 -0.2877
   38TAL   C189 7336  10.850   0.821   7.259  0.2561  0.2131 -0.2109
   38TAL   C190 7337  10.898   0.676   7.278  0.1359  0.0264 -0.1303
   39HTM   C191 7338  10.936   0.944   7.632 -0.0596  0.2906  0.4978
   39HTM   C192 7339  10.862   0.834   7.664 -0.1149  0.3325  0.5159
   39HTM   C193 7340  10.942   0.716   7.686 -0.1984  0.2196  0.2139
   39HTM   C194 7341  11.076   0.736   7.671 -0.2067  0.0915 -0.0347
   39HTM    S20 7342  11.112   0.908   7.627 -0.1090  0.1038  0.0946
   40TAL   C195 7343  10.877   0.581   7.726 -0.5897 -0.0246  0.5964
   40TAL   C196 7344  10.780   0.519   7.631  0.1285 -0.5109 -0.0344
   40TAL   C197 7345  10.653   0.593   7.588  0.3036 -0.4975 -0.7268
   40TAL   C198 7346  10.551   0.629   7.695  0.2902  0.2057  0.2237
   40TAL   C199 7347  10.481   0.762   7.658  0.3447 -0.0200 -0.1354
   40TAL   C200 7348  10.399   0.819   7.774 -0.2527 -0.4953  0.2575
   41HTM   C201 7349  11.199   0.659   7.685  0.0756  0.1522  0.1745
   41HTM   C202 7350  11.324   0.708   7.664  0.1742  0.1239  0.6843
   41HTM   C203 7351  11.427   0.608   7.671  0.0771  0.0225  0.6652
   41HTM   C204 7352  11.380   0.483   7.697 -0.0955 -0.0264  0.1405
   41HTM    S21 7353  11.201   0.482   7.716 -0.1492  0.0523 -0.3739
   42TAL   C205 7354  11.572   0.648   7.642 -0.3197 -0.6408 -0.4054
   42TAL   C206 7355  11.612   0.668   7.490 -0.1549 -0.8279  0.2343
   42TAL   C207 7356  11.754   0.696   7.470 -0.4805  0.2914  0.4274
   42TAL   C208 7357  11.862   0.591   7.503  0.4021 -0.2985  0.2266
   42TAL   C209 7358  12.007   0.634   7.488  0.1313 -0.3826 -1.0085
   42TAL   C210 7359  12.091   0.513   7.518  0.3186  0.2480  0.0897
   43HTM   C211 7360  11.457   0.361   7.669  0.3462  0.2773 -0.3508
   43HTM   C212 7361  11.435   0.284   7.559  0.4909  0.4776 -0.5207
   43HTM   C213 7362  11.545   0.196   7.526  0.4116  0.3162 -0.3555
   43HTM   C214 7363  11.650   0.207   7.612  0.2064 -0.0070 -0.0597
   43HTM    S22 7364  11.619   0.329   7.741  0.0965 -0.1337  0.0339
   44TAL   C215 7365  11.546   0.109   7.402  0.0705 -0.5411  0.0138
   44TAL   C216 7366  11.409   0.096   7.329 -0.7564  0.4019 -0.7487
   44TAL   C217 7367  11.416   0.056   7.181  0.0100 -0.1783 -0.2020
   44TAL   C218 7368  11.503  -0.066   7.133  0.4310  0.0632 -0.0842
   44TAL   C219 7369  11.653  -0.080   7.162  0.0897 -0.6280 -0.0975
   44TAL   C220 7370  11.740   0.032   7.110 -0.1919 -0.1290  0.3901
   45HTM   C221 7371  11.782   0.143   7.610 -0.1724 -0.3056 -0.1480
   45HTM   C222 7372  11.902   0.202   7.638 -0.2563  0.0864 -0.6015
   45HTM   C223 7373  12.014   0.112   7.630 -0.0381  0.3567 -0.6189
   45HTM   C224 7374  11.979  -0.016   7.597  0.2120  0.1704 -0.1789
   45HTM    S23 7375  11.801  -0.032   7.572  0.1916 -0.3640  0.2953
   46TAL   C225 7376  12.153   0.162   7.665  0.5687 -0.1324 -0.1968
   46TAL   C226 7377  12.236   0.195   7.545 -0.4248 -0.1837 -0.0317
   46TAL   C227 7378  12.360   0.278   7.600 -0.2789 -0.2598  0.6979
   46TAL   C228 7379  12.486   0.267   7.528 -0.3639 -0.4420 -0.1194
   46TAL   C229 7380  12.593   0.349   7.592 -0.1311  0.5462 -0.1843
   46TAL   C230 7381  12.688   0.388   7.485 -0.9415 -0.0442 -0.4387
   47HTM   C231 7382  12.049  -0.142   7.599  0.2929  0.2760  0.4502
   47HTM   C232 7383  11.998  -0.262   7.561 -0.0150  0.3486  0.6323
   47HTM   C233 7384  12.093  -0.370   7.567 -0.1831  0.1874  0.4263
   47HTM   C234 7385  12.216  -0.332   7.610 -0.0033 -0.0074  0.0876
   47HTM    S24 7386  12.222  -0.155   7.646  0.3951 -0.0025  0.0016
   48TAL   C235 7387  12.042  -0.512   7.529 -0.2278 -0.0518 -0.4000
   48TAL   C236 7388  12.139  -0.632   7.524 -0.4953 -0.4109  0.4164
   48TAL   C237 7389  12.082  -0.755   7.463 -0.1189  0.6779  0.0211
   48TAL   C238 7390  12.171  -0.881   7.486 -0.0327  0.5095 -0.3637
   48TAL   C239 7391  12.098  -1.000   7.417 -0.8033  0.2693 -0.5771
   48TAL   C240 7392  12.153  -1.144   7.448 -0.1646 -0.1624  0.3219
    1HTM     C1 7393   5.940   6.972   2.011 -0.0381 -0.0848  0.0341
    1HTM     C2 7394   5.916   6.846   2.058 -0.0215 -0.0553  0.1218
    1HTM     C3 7395   6.027   6.790   2.131  0.0050 -0.0091  0.1179
    1HTM     C4 7396   6.135   6.873   2.140  0.0081 -0.0033  0.0272
    1HTM     S1 7397   6.105   7.030   2.056 -0.0222 -0.0563 -0.0609
    2TAL     C5 7398   6.005   6.656   2.193 -0.7131 -0.2193 -0.2143
    2TAL     C6 7399   5.990   6.539   2.103 -0.3150  0.1349  0.3949
    2TAL     C7 7400   5.973   6.394   2.168 -1.1714  0.5414 -0.2953
    2TAL     C8 7401   6.094   6.338   2.247 -0.2986 -0.2453  0.3772
    2TAL     C9 7402   6.232   6.332   2.181  0.1097  0.3740  0.5153
    2TAL    C10 7403   6.349   6.263   2.256  0.0781  0.7245  0.1752
    3HTM    C11 7404   6.266   6.864   2.198  0.0737 -0.0073 -0.4251
    3HTM    C12 7405   6.352   6.970   2.211  0.2508 -0.1070 -0.7774
    3HTM    C13 7406   6.480   6.934   2.267  0.1314 -0.1047 -0.5029
    3HTM    C14 7407   6.491   6.802   2.297 -0.1370 -0.0030  0.0584
    3HTM     S2 7408   6.341   6.711   2.257 -0.2601  0.0984  0.2859
    4TAL    C15 7409   6.583   7.046   2.314 -0.0334 -0.1099 -0.4807
    4TAL    C16 7410   6.709   7.091   2.239  0.3606  0.5238  0.2533
    4TAL    C17 7411   6.827   7.002   2.223  0.0161  0.2067  0.0673
    4TAL    C18 7412   6.846   6.977   2.074  0.3212 -0.1891 -0.0977
    4TAL    C19 7413   6.935   6.863   2.044 -0.2937 -0.2394 -0.7005
    4TAL    C20 7414   6.938   6.796   1.908 -0.1435 -0.1269 -0.2073
    5HTM    C21 7415   6.608   6.737   2.355  0.2905  0.4307 -0.2338
    5HTM    C22 7416   6.628   6.724   2.489  0.3116  0.8082 -0.1985
    5HTM    C23 7417   6.744   6.646   2.523  0.0064  0.4313 -0.0024
    5HTM    C24 7418   6.813   6.600   2.415 -0.2474 -0.2337  0.1117
    5HTM     S3 7419   6.736   6.652   2.260 -0.1198 -0.4370 -0.0206
    6TAL    C25 7420   6.777   6.607   2.670 -0.7309 -0.2984 -0.2485
    6TAL    C26 7421   6.747   6.468   2.727  0.1365 -0.2730  0.4362
    6TAL    C27 7422   6.610   6.401   2.695 -0.4446  0.3731 -0.0609
    6TAL    C28 7423   6.621   6.247   2.674 -0.4251  0.6358  0.5635
    6TAL    C29 7424   6.582   6.216   2.533  0.5440 -0.0318  0.2416
    6TAL    C30 7425   6.632   6.079   2.493  0.1592  0.2282 -0.0564
    7HTM    C31 7426   6.941   6.536   2.410  0.3886 -0.0760  0.4172
    7HTM    C32 7427   7.066   6.587   2.391  0.4694 -0.3452  0.2184
    7HTM    C33 7428   7.172   6.492   2.412  0.2944 -0.5934 -0.0225
    7HTM    C34 7429   7.128   6.368   2.447  0.0802 -0.5133 -0.0072
    7HTM     S4 7430   6.948   6.362   2.457  0.0827 -0.1155  0.3151
    8TAL    C35 7431   7.317   6.517   2.392 -1.0606  0.3552 -0.4718
    8TAL    C36 7432   7.362   6.578   2.264  0.0552 -0.1429  0.1264
    8TAL    C37 7433   7.304   6.526   2.135 -0.0612 -0.2538 -0.1927
    8TAL    C38 7434   7.348   6.611   2.011  0.4156  0.2017 -0.1843
    8TAL    C39 7435   7.303   6.759   2.014  0.3058 -0.2866 -0.9747
    8TAL    C40 7436   7.360   6.841   1.896  0.1961 -0.3339 -0.1573
    9HTM    C41 7437   7.197   6.243   2.462 -0.0222  0.0631  0.1401
    9HTM    C42 7438   7.144   6.120   2.438  0.0887  0.0587 -0.0818
    9HTM    C43 7439   7.233   6.011   2.471  0.1500  0.0765 -0.1862
    9HTM    C44 7440   7.353   6.052   2.520  0.0858  0.0944 -0.0441
    9HTM     S5 7441   7.364   6.231   2.529 -0.0583  0.0902  0.2348
   10TAL    C45 7442   7.188   5.864   2.444 -0.1119  0.5505  0.1277
   10TAL    C46 7443   7.083   5.822   2.345 -0.1301  0.8734 -0.0257
   10TAL    C47 7444   6.947   5.862   2.389  0.2740  0.0324 -0.1962
   10TAL    C48 7445   6.820   5.808   2.322 -0.2379 -0.1560 -0.2761
   10TAL    C49 7446   6.798   5.662   2.358  0.1020 -0.1762  0.0064
   10TAL    C50 7447   6.662   5.597   2.308  0.1665  0.3614  0.5495
   11HTM    C51 7448   7.466   5.975   2.563 -0.3775  0.0630  0.4242
   11HTM    C52 7449   7.597   6.012   2.558 -0.3805  0.1266  0.7969
   11HTM    C53 7450   7.687   5.912   2.608 -0.4451  0.0045  0.6727
   11HTM    C54 7451   7.625   5.799   2.652 -0.4908 -0.1520  0.2050
   11HTM     S6 7452   7.446   5.809   2.632 -0.4562 -0.1576 -0.1170
   12TAL    C55 7453   7.838   5.940   2.613  0.0405  0.6182 -0.3226
   12TAL    C56 7454   7.910   5.989   2.488 -0.3148 -0.8994  0.2365
   12TAL    C57 7455   8.031   6.071   2.517 -0.3749  0.1352  0.5273
   12TAL    C58 7456   8.085   6.136   2.395 -0.2361 -0.6141  0.4080
   12TAL    C59 7457   7.995   6.239   2.323  0.3139  0.3724 -0.0827
   12TAL    C60 7458   8.083   6.310   2.222  0.3496  0.1981 -0.1234
   13HTM    C61 7459   7.673   5.672   2.711  0.3207  0.5724  0.2466
   13HTM    C62 7460   7.587   5.582   2.765  0.2213  1.0800  0.9441
   13HTM    C63 7461   7.646   5.453   2.790 -0.1447  0.9496  1.1410
   13HTM    C64 7462   7.777   5.445   2.755 -0.3245  0.3421  0.5937
   13HTM     S7 7463   7.837   5.601   2.687 -0.0430 -0.1154 -0.2190
   14TAL    C65 7464   7.560   5.333   2.830 -0.4943 -0.1712 -0.3576
   14TAL    C66 7465   7.452   5.348   2.939  0.1725 -0.3119 -0.1178
   14TAL    C67 7466   7.323   5.426   2.916  0.1429 -0.2993  0.4971
   14TAL    C68 7467   7.249   5.468   3.041 -0.5820 -0.0632 -0.0086
   14TAL    C69 7468   7.149   5.571   3.007 -0.0284  0.1619  0.2645
   14TAL    C70 7469   7.101   5.661   3.120  0.3942  0.3966  0.4687
   15HTM    C71 7470   7.866   5.332   2.758 -0.2253 -0.6318 -0.2679
   15HTM    C72 7471   7.879   5.241   2.858 -0.3273 -1.0152 -0.5997
   15HTM    C73 7472   7.968   5.132   2.827 -0.0381 -0.7217 -0.8006
   15HTM    C74 7473   8.023   5.141   2.702  0.2841 -0.1144 -0.6221
   15HTM     S8 7474   7.966   5.287   2.615  0.2464  0.1354 -0.1829
   16TAL    C75 7475   7.991   5.029   2.933 -0.9600 -0.3164 -0.2577
   16TAL    C76 7476   7.862   4.970   2.987 -0.0746 -0.2842 -0.3270
   16TAL    C77 7477   7.779   4.891   2.885  0.7954 -0.3517  0.1291
   16TAL    C78 7478   7.657   4.829   2.943 -0.0530  0.0957  0.2759
   16TAL    C79 7479   7.591   4.743   2.842 -0.2702  0.3194 -0.3015
   16TAL    C80 7480   7.473   4.654   2.887 -0.2624  0.0432 -0.4012
   17HTM    C81 7481   8.135   5.065   2.648  0.1703  0.0520  0.3685
   17HTM    C82 7482   8.229   5.116   2.564  0.2351  0.2239  0.5445
   17HTM    C83 7483   8.339   5.027   2.538  0.1416  0.1869  0.2697
   17HTM    C84 7484   8.329   4.908   2.603  0.0052 -0.0138 -0.1159
   17HTM     S9 7485   8.178   4.899   2.703 -0.0165 -0.1723 -0.1620
   18TAL    C85 7486   8.454   5.064   2.444  0.2919 -0.7074  0.1006
   18TAL    C86 7487   8.518   5.196   2.482 -0.2591 -0.4392  0.5772
   18TAL    C87 7488   8.650   5.230   2.412 -0.7943  0.4365 -0.3441
   18TAL    C88 7489   8.711   5.363   2.452  0.5212 -0.0900 -0.3113
   18TAL    C89 7490   8.626   5.488   2.409 -0.3277  0.1633 -0.5278
   18TAL    C90 7491   8.678   5.624   2.453 -0.4061  0.1949  0.0489
   19HTM    C91 7492   8.420   4.798   2.619  0.0600 -0.0255 -0.5345
   19HTM    C92 7493   8.556   4.797   2.631  0.0215 -0.1693 -0.1205
   19HTM    C93 7494   8.612   4.665   2.651 -0.2179 -0.1769  0.5302
   19HTM    C94 7495   8.518   4.566   2.653 -0.3625 -0.0391  0.6129
   19HTM    S10 7496   8.352   4.632   2.631 -0.2065  0.1125 -0.1309
   20TAL    C95 7497   8.762   4.645   2.662  0.2677  0.4673 -0.2330
   20TAL    C96 7498   8.871   4.754   2.650 -0.1323 -0.1594  0.7193
   20TAL    C97 7499   8.894   4.848   2.765  0.1385 -0.2858  0.0717
   20TAL    C98 7500   8.958   4.782   2.886  0.1979 -0.2590  0.2897
   20TAL    C99 7501   9.015   4.876   3.000  0.4365  0.3864  0.0608
   20TAL   C100 7502   9.091   4.804   3.109  0.3317 -0.5566 -0.1469
   21HTM   C101 7503   8.521   4.423   2.669  0.1246  0.0211 -0.2259
   21HTM   C102 7504   8.416   4.342   2.698  0.0634  0.0184 -0.4603
   21HTM   C103 7505   8.450   4.202   2.699  0.0882  0.0262 -0.2769
   21HTM   C104 7506   8.581   4.177   2.672  0.1680  0.0350  0.0976
   21HTM    S11 7507   8.673   4.329   2.642  0.2193  0.0338  0.2485
   22TAL   C105 7508   8.347   4.088   2.716 -0.1655 -0.4504 -0.3619
   22TAL   C106 7509   8.209   4.136   2.693 -0.0385  0.5831 -0.0876
   22TAL   C107 7510   8.112   4.023   2.725  0.1599  0.0239 -0.3216
   22TAL   C108 7511   7.967   4.054   2.691 -0.2414 -0.2343 -0.3504
   22TAL   C109 7512   7.872   3.954   2.748  0.0581 -0.5498  0.0921
   22TAL   C110 7513   7.725   3.987   2.733 -0.2242 -0.3934 -0.6003
   23HTM   C111 7514   8.668   4.062   2.689 -0.0009  0.0802  0.1921
   23HTM   C112 7515   8.797   4.065   2.733  0.0629 -0.0927  0.0168
   23HTM   C113 7516   8.853   3.935   2.756 -0.0105 -0.1750 -0.2670
   23HTM   C114 7517   8.767   3.833   2.730 -0.1305 -0.0646 -0.3078
   23HTM    S12 7518   8.607   3.893   2.674 -0.1601  0.1533  0.0113
   24TAL   C115 7519   8.992   3.919   2.813 -0.0218 -0.0911  0.2823
   24TAL   C116 7520   9.107   3.902   2.717 -1.1194 -0.8672  0.7631
   24TAL   C117 7521   9.232   3.879   2.797 -0.4174  0.4189  0.1843
   24TAL   C118 7522   9.355   3.866   2.704  0.0747  0.4758  0.6142
   24TAL   C119 7523   9.481   3.853   2.782 -0.4033  0.0810  0.8371
   24TAL   C120 7524   9.596   3.821   2.693  0.5559 -0.5531 -0.2380
   25HTM   C121 7525   8.781   3.684   2.740  0.2560  0.1472 -0.2987
   25HTM   C122 7526   8.699   3.594   2.680  0.2494  0.1626 -0.3124
   25HTM   C123 7527   8.739   3.457   2.697  0.2084  0.1535 -0.2863
   25HTM   C124 7528   8.853   3.442   2.771  0.1841  0.1310 -0.2529
   25HTM    S13 7529   8.918   3.602   2.825  0.2112  0.1196 -0.2515
   26TAL   C125 7530   8.670   3.342   2.630 -0.0085 -0.8126  0.3382
   26TAL   C126 7531   8.557   3.359   2.534  0.1577 -0.0434 -0.3081
   26TAL   C127 7532   8.526   3.242   2.441 -0.5784  0.5423  0.6590
   26TAL   C128 7533   8.406   3.246   2.343  0.2047  0.9838 -0.1216
   26TAL   C129 7534   8.409   3.131   2.241  0.1659  0.4551 -0.0571
   26TAL   C130 7535   8.293   3.161   2.143 -0.0004  0.0374 -0.1971
   27HTM   C131 7536   8.919   3.323   2.828 -0.1003  0.2942  0.2385
   27HTM   C132 7537   9.017   3.329   2.923 -0.0844  0.1161  0.2356
   27HTM   C133 7538   9.054   3.201   2.977 -0.1063  0.0181  0.0201
   27HTM   C134 7539   8.985   3.097   2.924 -0.1377  0.1216 -0.1409
   27HTM    S14 7540   8.866   3.153   2.800 -0.1437  0.3526 -0.0323
   28TAL   C135 7541   9.160   3.184   3.081  0.0630  0.6926  0.4903
   28TAL   C136 7542   9.154   3.277   3.197 -0.7638  0.0359  0.3587
   28TAL   C137 7543   9.249   3.246   3.311 -0.0430  0.9564 -0.8074
   28TAL   C138 7544   9.247   3.342   3.429 -0.4447 -0.9227 -0.1227
   28TAL   C139 7545   9.113   3.369   3.501  0.0576 -0.3753  0.3046
   28TAL   C140 7546   9.127   3.423   3.640  0.3401 -0.1981 -0.5204
   29HTM   C141 7547   8.981   2.952   2.951  0.2749  0.2289  0.1257
   29HTM   C142 7548   9.058   2.877   3.035  0.2193  0.2085  0.1593
   29HTM   C143 7549   9.018   2.739   3.042  0.1493  0.2292  0.1798
   29HTM   C144 7550   8.911   2.708   2.963  0.1521  0.2655  0.1620
   29HTM    S15 7551   8.851   2.853   2.873  0.2434  0.2764  0.1173
   30TAL   C145 7552   9.087   2.640   3.133  0.1063 -0.1367 -0.5681
   30TAL   C146 7553   9.229   2.618   3.082  0.0380  0.8748 -1.1177
   30TAL   C147 7554   9.291   2.487   3.130 -0.0419  0.3131  0.3772
   30TAL   C148 7555   9.228   2.352   3.086  0.1310 -0.0919 -0.0367
   30TAL   C149 7556   9.327   2.236   3.087 -0.2077 -0.1211 -0.9090
   30TAL   C150 7557   9.268   2.110   3.042 -0.0258 -0.0398  0.4974
   31HTM   C151 7558   8.835   2.584   2.943  0.1021 -0.1563 -0.1214
   31HTM   C152 7559   8.699   2.572   2.933  0.1135 -0.2328 -0.1801
   31HTM   C153 7560   8.653   2.436   2.928  0.1855 -0.2598 -0.1127
   31HTM   C154 7561   8.753   2.344   2.935  0.2289 -0.2038 -0.0026
   31HTM    S16 7562   8.915   2.422   2.948  0.1830 -0.1120  0.0247
   32TAL   C155 7563   8.500   2.426   2.913  0.0058  0.4324  0.2840
   32TAL   C156 7564   8.421   2.298   2.919  0.2798 -0.1997  0.0832
   32TAL   C157 7565   8.419   2.218   3.043 -0.6886  0.0127  0.1717
   32TAL   C158 7566   8.351   2.082   3.036 -0.0432  0.3102 -0.2552
   32TAL   C159 7567   8.354   2.020   3.170 -0.2524 -0.1975 -0.0358
   32TAL   C160 7568   8.300   1.877   3.167 -0.5054 -0.3230 -0.7033
   33HTM   C161 7569   8.754   2.199   2.933  0.3804 -0.0105 -0.2417
   33HTM   C162 7570   8.723   2.118   2.828  0.6385  0.0516 -0.3664
   33HTM   C163 7571   8.768   1.982   2.845  0.4697  0.0071 -0.2707
   33HTM   C164 7572   8.833   1.960   2.962  0.0830 -0.0890 -0.0732
   33HTM    S17 7573   8.842   2.109   3.062 -0.1000 -0.1311  0.0082
   34TAL   C165 7574   8.751   1.887   2.732  0.1496 -0.0335 -0.2537
   34TAL   C166 7575   8.617   1.822   2.700  0.2749 -0.1381  1.1236
   34TAL   C167 7576   8.524   1.788   2.818  0.1678 -0.2210  0.2596
   34TAL   C168 7577   8.394   1.736   2.760  0.2708  0.3195  0.0863
   34TAL   C169 7578   8.309   1.672   2.866 -0.8521  0.2744 -0.4431
   34TAL   C170 7579   8.185   1.598   2.824  0.2250  0.4255  0.0895
   35HTM   C171 7580   8.890   1.838   3.006 -0.2878 -0.2641 -0.6405
   35HTM   C172 7581   9.012   1.825   3.065 -0.5054 -0.0956 -0.1463
   35HTM   C173 7582   9.047   1.689   3.098 -0.6566  0.0055  0.4368
   35HTM   C174 7583   8.951   1.598   3.064 -0.5534 -0.0857  0.3872
   35HTM    S18 7584   8.808   1.678   2.987 -0.2559 -0.3081 -0.4059
   36TAL   C175 7585   9.178   1.660   3.171  1.1882  0.1850  0.0407
   36TAL   C176 7586   9.256   1.771   3.238  0.3216 -0.5038 -0.2758
   36TAL   C177 7587   9.389   1.729   3.293 -0.6313  0.9569  0.2109
   36TAL   C178 7588   9.479   1.852   3.307 -0.1761  0.0765  0.4128
   36TAL   C179 7589   9.616   1.814   3.359  0.4816  0.2573  0.2875
   36TAL   C180 7590   9.688   1.937   3.400 -0.4161 -0.1033 -0.0583
   37HTM   C181 7591   8.936   1.459   3.078 -0.0405  0.2112  0.2681
   37HTM   C182 7592   8.826   1.383   3.053 -0.2265  0.3611  0.6298
   37HTM   C183 7593   8.850   1.241   3.062 -0.4177  0.3312  0.6702
   37HTM   C184 7594   8.978   1.209   3.094 -0.3783  0.1586  0.3392
   37HTM    S19 7595   9.080   1.357   3.115 -0.0936  0.0193 -0.0521
   38TAL   C185 7596   8.742   1.132   3.051 -0.0814 -0.2593  0.1585
   38TAL   C186 7597   8.654   1.139   3.170 -0.4317  0.1742  0.1102
   38TAL   C187 7598   8.551   1.022   3.163 -0.2844 -0.2449  0.1815
   38TAL   C188 7599   8.463   1.002   3.283 -0.2782  0.7793 -0.3486
   38TAL   C189 7600   8.361   0.889   3.258  0.3542 -0.0268  0.3213
   38TAL   C190 7601   8.302   0.842   3.393  0.2688  0.1375 -0.0751
   39HTM   C191 7602   9.047   1.086   3.114 -0.1934 -0.0096 -0.0321
   39HTM   C192 7603   9.014   0.956   3.089 -0.2731 -0.0097  0.0696
   39HTM   C193 7604   9.114   0.862   3.132 -0.3524 -0.0406  0.1867
   39HTM   C194 7605   9.223   0.919   3.190 -0.3331 -0.0642  0.1738
   39HTM    S20 7606   9.208   1.099   3.195 -0.2124 -0.0491  0.0121
   40TAL   C195 7607   9.092   0.708   3.120 -0.0499  0.0333 -0.1216
   40TAL   C196 7608   8.965   0.642   3.065 -0.3473  0.5258  0.0778
   40TAL   C197 7609   8.835   0.667   3.148  0.1835 -0.0387  0.1451
   40TAL   C198 7610   8.708   0.621   3.068 -0.1553  0.1388  0.0459
   40TAL   C199 7611   8.669   0.476   3.076 -0.2078  0.3833 -0.3875
   40TAL   C200 7612   8.544   0.444   2.998 -0.6063 -0.5540 -0.7610
   41HTM   C201 7613   9.332   0.865   3.266  0.0140 -0.2001 -0.1593
   41HTM   C202 7614   9.406   0.932   3.360  0.2322 -0.0882 -0.4070
   41HTM   C203 7615   9.505   0.850   3.424  0.3071 -0.0411 -0.4635
   41HTM   C204 7616   9.508   0.721   3.379  0.1460 -0.1171 -0.2586
   41HTM    S21 7617   9.384   0.693   3.251 -0.1148 -0.2551  0.0235
   42TAL   C205 7618   9.594   0.911   3.523  0.0911 -1.2576 -0.3753
   42TAL   C206 7619   9.526   0.980   3.638  0.2329 -0.0906  0.2051
   42TAL   C207 7620   9.615   1.040   3.753 -0.1870  0.1935 -0.2083
   42TAL   C208 7621   9.661   0.946   3.862 -0.9332 -0.3724  0.4179
   42TAL   C209 7622   9.764   0.837   3.826 -0.1581  0.1243  0.6931
   42TAL   C210 7623   9.909   0.877   3.786 -0.2467 -0.3051  0.7969
   43HTM   C211 7624   9.600   0.612   3.409  0.0570 -0.2703  0.0561
   43HTM   C212 7625   9.606   0.490   3.349  0.4556 -0.1340 -0.1889
   43HTM   C213 7626   9.712   0.406   3.398  0.6302  0.0531 -0.2441
   43HTM   C214 7627   9.787   0.464   3.495  0.3646  0.0594 -0.0412
   43HTM    S22 7628   9.730   0.630   3.533 -0.1303 -0.1723  0.2377
   44TAL   C215 7629   9.719   0.259   3.351 -0.2160 -0.2109 -0.6524
   44TAL   C216 7630   9.743   0.146   3.451 -0.6761 -0.1835  0.1149
   44TAL   C217 7631   9.751   0.022   3.360 -0.7946 -0.0959  0.2167
   44TAL   C218 7632   9.802  -0.106   3.424  0.7010 -1.0497  0.1345
   44TAL   C219 7633   9.946  -0.095   3.463  0.3940  0.5777 -0.1867
   44TAL   C220 7634  10.011  -0.231   3.475 -0.4519  0.2426 -0.2365
   45HTM   C221 7635   9.904   0.421   3.576 -0.3011 -0.5385  0.2487
   45HTM   C222 7636  10.008   0.340   3.543 -0.2917 -0.5490  0.3034
   45HTM   C223 7637  10.097   0.312   3.653  0.0067 -0.0345  0.1988
   45HTM   C224 7638  10.060   0.371   3.770  0.2249  0.3684  0.0647
   45HTM    S23 7639   9.910   0.468   3.750  0.0692  0.1273  0.0596
   46TAL   C225 7640  10.204   0.206   3.636  0.5512 -0.5632  0.1640
   46TAL   C226 7641  10.256   0.164   3.501 -0.6433  0.1405  0.2377
   46TAL   C227 7642  10.364   0.052   3.507 -0.2142  0.0140 -0.7885
   46TAL   C228 7643  10.377  -0.008   3.372 -0.3705  0.1182 -0.1931
   46TAL   C229 7644  10.447  -0.147   3.354 -0.1061  0.2804 -0.0208
   46TAL   C230 7645  10.579  -0.172   3.427 -0.0823 -0.0991  0.2620
   47HTM   C231 7646  10.115   0.356   3.902  0.0214 -0.0645  0.2086
   47HTM   C232 7647  10.184   0.254   3.960 -0.2128 -0.1249  0.3830
   47HTM   C233 7648  10.196   0.265   4.103 -0.2373  0.0628  0.3703
   47HTM   C234 7649  10.135   0.376   4.155 -0.0217  0.2662  0.1859
   47HTM    S24 7650  10.059   0.476   4.025  0.2309  0.2363  0.0130
   48TAL   C235 7651  10.274   0.170   4.190 -0.7229  0.2553 -0.5766
   48TAL   C236 7652  10.336   0.056   4.116 -0.0913  0.2445  0.1755
   48TAL   C237 7653  10.401  -0.068   4.188  0.4554 -0.2859 -0.3175
   48TAL   C238 7654  10.316  -0.160   4.272 -0.2913 -0.1270  1.0397
   48TAL   C239 7655  10.193  -0.228   4.213 -0.6911  0.3680  0.0709
   48TAL   C240 7656  10.234  -0.345   4.124  0.0828 -0.4738 -0.3717
    1HTM     C1 7657   2.893   6.052   3.378 -0.1607 -0.0981 -0.0401
    1HTM     C2 7658   2.784   6.048   3.459 -0.0191 -0.0653  0.1513
    1HTM     C3 7659   2.732   5.915   3.479  0.0269 -0.0594  0.3117
    1HTM     C4 7660   2.801   5.818   3.413 -0.0797 -0.0883  0.2426
    1HTM     S1 7661   2.939   5.887   3.319 -0.2475 -0.1252 -0.0327
    2TAL     C5 7662   2.606   5.896   3.557 -0.6239  0.0891 -0.6178
    2TAL     C6 7663   2.468   5.930   3.502 -0.0676 -0.1637 -0.0943
    2TAL     C7 7664   2.421   5.871   3.384  0.9739 -0.1891  0.4992
    2TAL     C8 7665   2.295   5.943   3.348  0.1078 -0.1693  0.1088
    2TAL     C9 7666   2.239   5.868   3.228  0.3112  0.2696  0.1865
    2TAL    C10 7667   2.089   5.883   3.201 -0.7683  0.1649 -0.0333
    3HTM    C11 7668   2.790   5.676   3.409  0.1306  0.0024  0.3761
    3HTM    C12 7669   2.679   5.603   3.437  0.2202 -0.0196  0.6841
    3HTM    C13 7670   2.700   5.460   3.428  0.2359 -0.0169  0.6759
    3HTM    C14 7671   2.827   5.426   3.393  0.1582  0.0071  0.3617
    3HTM     S2 7672   2.931   5.571   3.369  0.0587  0.0279  0.0492
    4TAL    C15 7673   2.585   5.364   3.456 -0.3179 -0.8211  0.5883
    4TAL    C16 7674   2.444   5.409   3.491 -0.8138  0.3148 -0.2561
    4TAL    C17 7675   2.344   5.299   3.521  0.1843 -0.0571  0.3563
    4TAL    C18 7676   2.208   5.359   3.538  0.4309  0.6026 -0.3437
    4TAL    C19 7677   2.100   5.294   3.638 -0.3854 -0.5356 -0.3452
    4TAL    C20 7678   2.062   5.152   3.603  0.1426  0.0673  0.3752
    5HTM    C21 7679   2.903   5.296   3.386 -0.1147 -0.1024  0.0076
    5HTM    C22 7680   2.852   5.170   3.383 -0.0983 -0.1087  0.0058
    5HTM    C23 7681   2.952   5.067   3.371 -0.0796 -0.0997  0.0817
    5HTM    C24 7682   3.080   5.116   3.364 -0.0817 -0.0857  0.1412
    5HTM     S3 7683   3.083   5.296   3.373 -0.1076 -0.0838  0.1059
    6TAL    C25 7684   2.912   4.920   3.363  0.5733  0.6892 -0.4507
    6TAL    C26 7685   2.808   4.876   3.261 -0.1991 -0.0092  0.2017
    6TAL    C27 7686   2.768   4.731   3.256  0.2709 -0.0414  0.2426
    6TAL    C28 7687   2.675   4.688   3.144  0.5392 -0.5935  0.1850
    6TAL    C29 7688   2.538   4.753   3.137  0.0039  0.0845  0.5521
    6TAL    C30 7689   2.455   4.706   3.008  0.0089  0.3874  0.1281
    7HTM    C31 7690   3.209   5.043   3.363  0.1950  0.0683  0.1505
    7HTM    C32 7691   3.328   5.104   3.336  0.2270  0.1793  0.5348
    7HTM    C33 7692   3.441   5.015   3.344  0.2640  0.2434  0.7226
    7HTM    C34 7693   3.408   4.887   3.378  0.2601  0.1813  0.4817
    7HTM     S4 7694   3.230   4.868   3.402  0.2089  0.0358 -0.0051
    8TAL    C35 7695   3.583   5.067   3.316 -0.4974  0.2144 -0.3180
    8TAL    C36 7696   3.695   4.982   3.264  0.2484 -0.1942  0.7363
    8TAL    C37 7697   3.831   5.048   3.256 -0.4398 -0.7121  0.0385
    8TAL    C38 7698   3.913   5.068   3.383 -0.0894  0.3083 -0.7317
    8TAL    C39 7699   3.948   4.932   3.452  0.1786 -0.1261 -0.8251
    8TAL    C40 7700   4.042   4.931   3.574  0.5048 -0.1317  0.1801
    9HTM    C41 7701   3.483   4.763   3.411  0.0213  0.1430 -0.1251
    9HTM    C42 7702   3.515   4.723   3.538 -0.1062  0.1106 -0.1035
    9HTM    C43 7703   3.588   4.599   3.542 -0.2159  0.0472 -0.0542
    9HTM    C44 7704   3.613   4.545   3.419 -0.1719  0.0311 -0.0385
    9HTM     S5 7705   3.544   4.647   3.287  0.0127  0.0954 -0.0853
   10TAL    C45 7706   3.634   4.535   3.674  0.4975  0.6082 -0.1648
   10TAL    C46 7707   3.727   4.605   3.756 -0.3000 -0.8494 -0.3054
   10TAL    C47 7708   3.859   4.641   3.693  0.1431  0.3615 -0.2559
   10TAL    C48 7709   3.941   4.519   3.653  0.7989 -0.0078  0.3079
   10TAL    C49 7710   4.078   4.553   3.588  0.3575 -0.1338  0.0086
   10TAL    C50 7711   4.183   4.562   3.694  0.7849  0.3911 -0.3317
   11HTM    C51 7712   3.663   4.412   3.383  0.4825  0.0313  0.2861
   11HTM    C52 7713   3.793   4.371   3.383  0.4158 -0.1802  0.0442
   11HTM    C53 7714   3.816   4.250   3.308  0.0991 -0.1554 -0.0923
   11HTM    C54 7715   3.703   4.199   3.251 -0.0754  0.0751  0.0457
   11HTM     S6 7716   3.558   4.300   3.288  0.1481  0.2803  0.3612
   12TAL    C55 7717   3.952   4.183   3.311  0.7151 -0.1227 -0.6661
   12TAL    C56 7718   4.059   4.243   3.406 -0.7024 -0.2161  0.4393
   12TAL    C57 7719   4.176   4.155   3.436 -0.4293  0.2002 -0.0107
   12TAL    C58 7720   4.287   4.194   3.532 -0.1061  0.1672  0.1937
   12TAL    C59 7721   4.377   4.309   3.489  0.0715  0.0282 -0.2943
   12TAL    C60 7722   4.505   4.301   3.571 -0.0210  0.5872 -0.0920
   13HTM    C61 7723   3.684   4.091   3.156  0.1400  0.2476  0.3004
   13HTM    C62 7724   3.782   4.027   3.086  0.1435  0.0167  0.5161
   13HTM    C63 7725   3.731   3.929   2.993  0.1184  0.1314  0.4095
   13HTM    C64 7726   3.595   3.919   2.992  0.0957  0.4498  0.1127
   13HTM     S7 7727   3.520   4.033   3.109  0.1044  0.6310 -0.0565
   14TAL    C65 7728   3.834   3.859   2.902 -0.8108  0.0265 -0.4263
   14TAL    C66 7729   3.870   3.720   2.951 -0.6317 -0.2779 -0.3469
   14TAL    C67 7730   3.937   3.699   3.090 -0.0729  0.3364 -0.3426
   14TAL    C68 7731   4.059   3.783   3.124 -0.4823 -0.0320  0.0375
   14TAL    C69 7732   4.116   3.786   3.272  0.2794 -0.1210  0.6077
   14TAL    C70 7733   4.111   3.645   3.339  0.7620 -0.2791 -0.1369
   15HTM    C71 7734   3.503   3.844   2.911  0.5704 -0.0828  0.3815
   15HTM    C72 7735   3.369   3.831   2.928  0.6107  0.0952  0.8576
   15HTM    C73 7736   3.300   3.782   2.811  0.1060  0.3802  1.0315
   15HTM    C74 7737   3.383   3.758   2.705 -0.3191  0.4193  0.6881
   15HTM     S8 7738   3.555   3.794   2.745 -0.1136  0.0969  0.1139
   16TAL    C75 7739   3.152   3.753   2.833 -0.4238 -0.5160 -0.2549
   16TAL    C76 7740   3.048   3.869   2.847  0.0308 -0.1318 -0.2109
   16TAL    C77 7741   3.067   3.993   2.759  0.6592  0.9149  0.3771
   16TAL    C78 7742   2.939   4.073   2.741  1.0214 -0.0576  0.2214
   16TAL    C79 7743   2.936   4.179   2.633 -0.6474 -0.1777 -0.3636
   16TAL    C80 7744   3.019   4.300   2.662  0.4009 -0.1609  0.4959
   17HTM    C81 7745   3.339   3.775   2.566 -0.3416  0.2418  0.1479
   17HTM    C82 7746   3.213   3.782   2.515 -0.2328  0.1382 -0.1345
   17HTM    C83 7747   3.207   3.843   2.385  0.0365 -0.0688 -0.2452
   17HTM    C84 7748   3.328   3.882   2.337  0.1328 -0.1227 -0.0471
   17HTM     S9 7749   3.461   3.846   2.453 -0.1109  0.0852  0.2973
   18TAL    C85 7750   3.072   3.864   2.323  0.1651  0.3424  0.3237
   18TAL    C86 7751   2.939   3.846   2.404 -0.1878  0.5680 -0.3427
   18TAL    C87 7752   2.905   3.715   2.478  1.0613  0.6229  0.2226
   18TAL    C88 7753   2.761   3.694   2.530  0.8006 -0.3487  0.2823
   18TAL    C89 7754   2.663   3.695   2.419  0.4998  0.1019 -0.6642
   18TAL    C90 7755   2.514   3.657   2.470 -0.6947 -0.0635  0.0035
   19HTM    C91 7756   3.380   3.967   2.240 -0.0586  0.0083  0.0033
   19HTM    C92 7757   3.353   4.101   2.239 -0.0737  0.0036 -0.1241
   19HTM    C93 7758   3.460   4.181   2.185  0.0124 -0.0124  0.0246
   19HTM    C94 7759   3.569   4.109   2.147  0.0934 -0.0196  0.2652
   19HTM    S10 7760   3.545   3.933   2.175  0.0667 -0.0072  0.3231
   20TAL    C95 7761   3.450   4.332   2.180  0.6529  0.1064 -0.5190
   20TAL    C96 7762   3.414   4.409   2.308  0.0818  0.4544  0.1605
   20TAL    C97 7763   3.520   4.412   2.422  0.8244  0.2377 -0.1677
   20TAL    C98 7764   3.664   4.437   2.374 -0.4908 -0.5330 -0.6079
   20TAL    C99 7765   3.761   4.468   2.484  0.0522 -0.4118  1.2188
   20TAL   C100 7766   3.886   4.533   2.417 -0.0736 -0.1616  0.5986
   21HTM   C101 7767   3.704   4.144   2.102  0.1339 -0.0354  0.1052
   21HTM   C102 7768   3.764   4.264   2.083  0.3135 -0.1347  0.0389
   21HTM   C103 7769   3.906   4.256   2.060  0.2761 -0.3695 -0.1072
   21HTM   C104 7770   3.954   4.128   2.062  0.0676 -0.4490 -0.1523
   21HTM    S11 7771   3.823   4.008   2.093 -0.0987 -0.2319 -0.0126
   22TAL   C105 7772   4.000   4.378   2.050 -0.3968  0.4833  0.0549
   22TAL   C106 7773   3.943   4.516   2.026  0.2601  0.4001  0.2340
   22TAL   C107 7774   3.826   4.539   1.932  0.0749  0.9109 -0.0213
   22TAL   C108 7775   3.795   4.688   1.900 -0.0113  0.4113 -0.1900
   22TAL   C109 7776   3.902   4.757   1.819  0.0184 -0.0965 -0.0634
   22TAL   C110 7777   3.872   4.896   1.773  0.4678 -0.1503  0.0026
   23HTM   C111 7778   4.087   4.071   2.058 -0.1944 -0.1194 -0.0487
   23HTM   C112 7779   4.204   4.123   2.010 -0.2708 -0.0305 -0.1397
   23HTM   C113 7780   4.314   4.030   2.014 -0.2046  0.0436 -0.2545
   23HTM   C114 7781   4.282   3.908   2.065 -0.0778  0.0114 -0.2508
   23HTM    S12 7782   4.108   3.900   2.112 -0.0316 -0.1161 -0.1012
   24TAL   C115 7783   4.458   4.070   1.987 -0.4707  0.1529 -0.3997
   24TAL   C116 7784   4.482   4.209   1.923 -0.5847  0.6743 -0.6758
   24TAL   C117 7785   4.487   4.330   2.017  0.1652 -0.5757  0.2666
   24TAL   C118 7786   4.560   4.435   1.937 -0.5011 -0.3418  0.5205
   24TAL   C119 7787   4.635   4.533   2.029 -0.0248  0.1748 -0.2936
   24TAL   C120 7788   4.688   4.643   1.941 -0.2554 -1.0444 -0.4020
   25HTM   C121 7789   4.361   3.783   2.074  0.0137 -0.1112  0.1710
   25HTM   C122 7790   4.496   3.764   2.089 -0.0420 -0.1580  0.6353
   25HTM   C123 7791   4.533   3.625   2.105 -0.1636 -0.1527  0.9754
   25HTM   C124 7792   4.427   3.539   2.103 -0.2006 -0.1018  0.7707
   25HTM    S13 7793   4.271   3.627   2.080 -0.0840 -0.0564  0.1276
   26TAL   C125 7794   4.675   3.585   2.108  0.2728  0.2928  0.0099
   26TAL   C126 7795   4.780   3.686   2.056 -0.5163  0.2780 -0.7638
   26TAL   C127 7796   4.919   3.633   2.016  0.7466 -0.3142  0.1388
   26TAL   C128 7797   4.929   3.561   1.880 -0.0443 -0.5635 -0.5535
   26TAL   C129 7798   5.046   3.472   1.863 -0.1835  0.1555  0.4162
   26TAL   C130 7799   5.177   3.541   1.837  0.5844  0.0514  0.4387
   27HTM   C131 7800   4.425   3.393   2.099  0.1167 -0.0999  0.0331
   27HTM   C132 7801   4.316   3.325   2.053  0.1297 -0.0273 -0.1092
   27HTM   C133 7802   4.337   3.183   2.043  0.1960  0.0105 -0.5193
   27HTM   C134 7803   4.462   3.143   2.081  0.2337 -0.0335 -0.6897
   27HTM    S14 7804   4.563   3.283   2.132  0.1876 -0.1265 -0.3427
   28TAL   C135 7805   4.214   3.098   1.999 -0.0643  0.0690 -0.0375
   28TAL   C136 7806   4.100   3.074   2.094 -0.1582  0.1318 -1.1676
   28TAL   C137 7807   4.013   2.951   2.071 -0.0224 -0.9615  0.1719
   28TAL   C138 7808   3.882   2.935   2.144 -0.1761  0.1126 -0.3487
   28TAL   C139 7809   3.891   2.894   2.288  0.2909 -0.2929  0.6559
   28TAL   C140 7810   3.940   2.748   2.312  0.4535 -0.2128 -0.7423
   29HTM   C141 7811   4.531   3.012   2.075 -0.1875 -0.0233  0.3015
   29HTM   C142 7812   4.655   2.973   2.117 -0.2623 -0.0166  0.5335
   29HTM   C143 7813   4.692   2.841   2.075 -0.1178  0.0417  0.4748
   29HTM   C144 7814   4.596   2.777   2.002  0.0669  0.0794  0.1980
   29HTM    S15 7815   4.451   2.882   1.980  0.0734  0.0442 -0.0118
   30TAL   C145 7816   4.823   2.791   2.127 -0.8654  0.1827 -0.1711
   30TAL   C146 7817   4.877   2.648   2.090  0.1291  0.5245 -0.3551
   30TAL   C147 7818   5.026   2.613   2.102  0.7983  0.0373 -0.5199
   30TAL   C148 7819   5.039   2.467   2.072 -0.5257 -0.3708 -0.7515
   30TAL   C149 7820   5.152   2.399   2.147 -0.0522 -0.7835 -0.3137
   30TAL   C150 7821   5.161   2.246   2.123  0.3482  0.2283 -0.7104
   31HTM   C151 7822   4.592   2.648   1.936  0.3768 -0.0347  0.3202
   31HTM   C152 7823   4.622   2.633   1.804  0.9933  0.0720  0.4476
   31HTM   C153 7824   4.631   2.496   1.762  1.0989  0.1067  0.3546
   31HTM   C154 7825   4.606   2.406   1.862  0.5630  0.0266  0.1563
   31HTM    S16 7826   4.571   2.489   2.018 -0.1221 -0.1000  0.0710
   32TAL   C155 7827   4.653   2.455   1.614 -0.0863  0.5631  0.3365
   32TAL   C156 7828   4.697   2.560   1.515  0.1498 -0.5572  0.2341
   32TAL   C157 7829   4.837   2.620   1.517  0.2674 -0.4247 -0.2465
   32TAL   C158 7830   4.852   2.729   1.410  0.0192 -0.2284  0.0343
   32TAL   C159 7831   4.975   2.809   1.434 -1.0868  0.6441 -0.9132
   32TAL   C160 7832   4.970   2.944   1.365  0.3618  0.5727 -0.4045
   33HTM   C161 7833   4.618   2.265   1.862  0.1229 -0.3186 -0.1704
   33HTM   C162 7834   4.526   2.173   1.820  0.3691 -0.3632 -0.6239
   33HTM   C163 7835   4.566   2.037   1.842  0.4761 -0.3506 -0.7420
   33HTM   C164 7836   4.689   2.024   1.900  0.3119 -0.2964 -0.3784
   33HTM    S17 7837   4.764   2.184   1.932  0.0065 -0.2567  0.1453
   34TAL   C165 7838   4.481   1.916   1.802 -0.0113 -0.0328  0.4711
   34TAL   C166 7839   4.336   1.930   1.762 -0.1386  0.2406  0.2395
   34TAL   C167 7840   4.237   1.968   1.873 -0.5254 -0.0998  0.3171
   34TAL   C168 7841   4.088   1.989   1.832 -0.1056 -0.1984 -0.1307
   34TAL   C169 7842   4.002   1.999   1.956 -0.1169 -0.7789 -0.3821
   34TAL   C170 7843   3.859   2.041   1.931  0.3102  0.6276  0.7004
   35HTM   C171 7844   4.771   1.903   1.936  0.6631  0.2559 -0.2249
   35HTM   C172 7845   4.887   1.908   2.007  0.6361  0.1190 -0.1711
   35HTM   C173 7846   4.939   1.779   2.042  0.3200  0.0623  0.0939
   35HTM   C174 7847   4.863   1.675   1.998  0.1053  0.1560  0.2421
   35HTM    S18 7848   4.718   1.733   1.907  0.2877  0.3243  0.0571
   36TAL   C175 7849   5.055   1.765   2.136  0.0530  0.0705  0.3244
   36TAL   C176 7850   5.109   1.892   2.205  0.6448 -0.0109 -0.4043
   36TAL   C177 7851   5.213   1.874   2.321  0.1325  0.0745  0.6550
   36TAL   C178 7852   5.194   1.760   2.423 -0.4198 -0.0691 -0.3995
   36TAL   C179 7853   5.306   1.740   2.524 -0.2233  0.1043 -1.0306
   36TAL   C180 7854   5.324   1.852   2.628  0.4470 -0.1528  0.2504
   37HTM   C181 7855   4.875   1.533   2.023  0.1926  0.0004  0.0469
   37HTM   C182 7856   4.771   1.445   2.021  0.1810  0.0232 -0.3736
   37HTM   C183 7857   4.811   1.308   2.044  0.0877 -0.0160 -0.4437
   37HTM   C184 7858   4.945   1.293   2.064  0.0283 -0.0686 -0.0765
   37HTM    S19 7859   5.032   1.451   2.055  0.0860 -0.0730  0.3897
   38TAL   C185 7860   4.694   1.205   2.048  0.4990  0.1361  0.6130
   38TAL   C186 7861   4.546   1.262   2.065 -0.1021  0.2571 -0.3563
   38TAL   C187 7862   4.425   1.166   2.041  0.4321 -0.5924  0.7192
   38TAL   C188 7863   4.299   1.256   2.019 -0.0961  0.4312  0.1083
   38TAL   C189 7864   4.179   1.168   1.985 -0.4438  0.1999 -0.4244
   38TAL   C190 7865   4.050   1.245   1.978  0.3854  0.1801 -0.0901
   39HTM   C191 7866   5.019   1.173   2.109  0.5163 -0.1647  0.4468
   39HTM   C192 7867   5.136   1.177   2.179  0.4456 -0.6033  0.5866
   39HTM   C193 7868   5.193   1.046   2.203  0.1068 -0.7943  0.3580
   39HTM   C194 7869   5.119   0.944   2.150 -0.0807 -0.5013  0.0440
   39HTM    S20 7870   4.971   1.005   2.067  0.1580  0.0428  0.0123
   40TAL   C195 7871   5.331   1.049   2.264  0.4278  0.6350 -0.7266
   40TAL   C196 7872   5.408   0.924   2.317  0.2388 -0.5044 -0.6809
   40TAL   C197 7873   5.547   0.966   2.365  0.2156  0.5432  0.0411
   40TAL   C198 7874   5.604   0.850   2.451 -0.3039 -0.2011 -0.4376
   40TAL   C199 7875   5.746   0.856   2.499 -0.6903 -0.3220 -0.2997
   40TAL   C200 7876   5.776   0.954   2.613 -0.3393 -0.2104 -0.2249
   41HTM   C201 7877   5.136   0.798   2.160  0.0155  0.6292  0.1470
   41HTM   C202 7878   5.168   0.714   2.058 -0.1428  1.1207 -0.3164
   41HTM   C203 7879   5.169   0.575   2.096 -0.0565  0.9348 -0.9824
   41HTM   C204 7880   5.137   0.554   2.227  0.1672  0.3016 -1.0269
   41HTM    S21 7881   5.104   0.709   2.313  0.2875 -0.1122 -0.2248
   42TAL   C205 7882   5.221   0.464   2.003  0.0554  1.0200  0.5849
   42TAL   C206 7883   5.361   0.471   1.937 -0.1851  0.4407 -0.5291
   42TAL   C207 7884   5.400   0.337   1.876  0.4158  0.2980 -0.0796
   42TAL   C208 7885   5.552   0.322   1.889  0.6654  0.5929  0.3254
   42TAL   C209 7886   5.595   0.204   1.802  0.0307  0.6148  0.0721
   42TAL   C210 7887   5.747   0.191   1.783  0.2369 -0.5268 -0.3305
   43HTM   C211 7888   5.126   0.435   2.310 -0.3894  0.0763  0.5201
   43HTM   C212 7889   5.015   0.397   2.379 -0.3092 -0.2214  0.4843
   43HTM   C213 7890   5.028   0.269   2.444 -0.1652 -0.4150  0.0752
   43HTM   C214 7891   5.150   0.210   2.424 -0.1365 -0.2649 -0.2009
   43HTM    S22 7892   5.257   0.312   2.322 -0.2892  0.1358  0.0360
   44TAL   C215 7893   4.914   0.199   2.511 -0.1985 -0.3935 -0.4039
   44TAL   C216 7894   4.782   0.265   2.507  0.0312  0.2331 -0.0383
   44TAL   C217 7895   4.666   0.182   2.575  0.9933  0.0379  0.5386
   44TAL   C218 7896   4.624   0.044   2.507 -0.8822 -0.7738  0.2399
   44TAL   C219 7897   4.496  -0.013   2.548  0.0488 -0.5291 -0.1539
   44TAL   C220 7898   4.366   0.056   2.500 -0.0033  0.0569  0.7763
   45HTM   C221 7899   5.203   0.088   2.472 -0.0489 -0.3654 -0.0601
   45HTM   C222 7900   5.145  -0.033   2.494  0.1559 -0.5350 -0.4290
   45HTM   C223 7901   5.238  -0.136   2.530  0.3059 -0.4320 -0.5184
   45HTM   C224 7902   5.367  -0.094   2.535  0.2153 -0.1832 -0.2176
   45HTM    S23 7903   5.382   0.081   2.494 -0.0682 -0.0594  0.2051
   46TAL   C225 7904   5.189  -0.271   2.571  0.2075  0.1160  0.1790
   46TAL   C226 7905   5.170  -0.377   2.451 -0.2740 -0.0379 -0.3457
   46TAL   C227 7906   5.107  -0.502   2.510 -0.0483 -0.0631  0.0396
   46TAL   C228 7907   5.064  -0.607   2.402  0.1589  0.2254  0.4771
   46TAL   C229 7908   5.172  -0.660   2.310 -0.0516  0.0384  0.7506
   46TAL   C230 7909   5.127  -0.781   2.232 -0.6883  0.6758 -0.1709
   47HTM   C231 7910   5.493  -0.164   2.582  0.1648  0.0907  0.1417
   47HTM   C232 7911   5.600  -0.097   2.634  0.2542 -0.0801  0.1769
   47HTM   C233 7912   5.702  -0.184   2.687  0.1915 -0.2465  0.0244
   47HTM   C234 7913   5.673  -0.317   2.675  0.0542 -0.2021 -0.1271
   47HTM    S24 7914   5.513  -0.342   2.595 -0.0068  0.0543 -0.0884
   48TAL   C235 7915   5.828  -0.135   2.760  0.5913 -1.1318 -0.2363
   48TAL   C236 7916   5.942  -0.228   2.796 -0.2189 -0.0923 -0.7962
   48TAL   C237 7917   6.066  -0.152   2.852  1.1396 -0.1074 -0.2494
   48TAL   C238 7918   6.202  -0.228   2.849  0.0483 -0.4989  0.8033
   48TAL   C239 7919   6.250  -0.255   2.706 -0.3337  0.5083  0.3140
   48TAL   C240 7920   6.371  -0.349   2.702 -0.2781  0.0816 -0.4322
    1HTM     C1 7921   4.756   5.519   1.061  0.6370  0.1386 -0.6204
    1HTM     C2 7922   4.790   5.394   1.020  0.5534  0.1063 -0.5907
    1HTM     C3 7923   4.693   5.333   0.934  0.2663 -0.0532 -0.1551
    1HTM     C4 7924   4.584   5.411   0.909  0.1311 -0.1423  0.1473
    1HTM     S1 7925   4.597   5.570   0.993  0.3576 -0.0314 -0.0965
    2TAL     C5 7926   4.732   5.197   0.875 -0.2723  0.3945 -0.0670
    2TAL     C6 7927   4.856   5.192   0.787 -0.0664 -0.2147  0.1565
    2TAL     C7 7928   4.857   5.069   0.682 -0.2398  0.8316 -0.7950
    2TAL     C8 7929   4.992   5.041   0.608 -0.2418 -0.1848  0.1581
    2TAL     C9 7930   5.076   5.147   0.533 -0.4102  0.1675  0.2863
    2TAL    C10 7931   5.225   5.101   0.518 -0.0713 -0.1041  0.1693
    3HTM    C11 7932   4.465   5.399   0.826  0.3380 -0.1471 -0.3130
    3HTM    C12 7933   4.377   5.500   0.802  0.8049  0.2391 -0.4299
    3HTM    C13 7934   4.271   5.464   0.711  0.5662  0.5856 -0.2914
    3HTM    C14 7935   4.279   5.335   0.666 -0.0824  0.4635 -0.0689
    3HTM     S2 7936   4.422   5.249   0.735 -0.4448 -0.1032 -0.0166
    4TAL    C15 7937   4.180   5.573   0.663  0.0253 -0.2989 -0.1971
    4TAL    C16 7938   4.029   5.552   0.706  0.2058  0.1187 -0.5690
    4TAL    C17 7939   3.928   5.631   0.614 -0.6230  0.6184 -0.2488
    4TAL    C18 7940   3.781   5.588   0.633  0.5921  0.7297 -0.1488
    4TAL    C19 7941   3.721   5.453   0.589  0.8982 -0.4678  0.0977
    4TAL    C20 7942   3.564   5.460   0.591 -0.8960 -0.4578 -0.3237
    5HTM    C21 7943   4.188   5.257   0.583  0.1233 -0.3226 -0.1592
    5HTM    C22 7944   4.101   5.307   0.490 -0.0474 -0.2203  0.0533
    5HTM    C23 7945   4.017   5.206   0.430 -0.5226 -0.0765  0.4775
    5HTM    C24 7946   4.039   5.081   0.478 -0.7141 -0.0689  0.5886
    5HTM     S3 7947   4.169   5.079   0.602 -0.3068 -0.2446  0.1625
    6TAL    C25 7948   3.928   5.240   0.317 -0.1971  0.7161  0.0015
    6TAL    C26 7949   3.970   5.219   0.175 -0.1895 -0.2503 -0.8679
    6TAL    C27 7950   4.109   5.258   0.150 -0.4434 -0.3871  0.4542
    6TAL    C28 7951   4.165   5.237   0.007 -0.6503  0.2163 -0.3819
    6TAL    C29 7952   4.319   5.261  -0.006  0.2510 -0.8528 -0.1783
    6TAL    C30 7953   4.386   5.200  -0.128 -0.1147  0.6092 -0.4650
    7HTM    C31 7954   3.984   4.951   0.438  0.4578 -0.3729 -0.0372
    7HTM    C32 7955   4.049   4.833   0.414  0.1438 -0.4883 -0.3320
    7HTM    C33 7956   3.961   4.725   0.377 -0.1938 -0.2842 -0.1349
    7HTM    C34 7957   3.830   4.760   0.373 -0.1374 -0.0130  0.3101
    7HTM     S4 7958   3.806   4.933   0.416  0.3503  0.0055  0.5164
    8TAL    C35 7959   4.022   4.595   0.341  0.5079 -0.6405  0.3153
    8TAL    C36 7960   4.177   4.563   0.349  0.1718 -0.9655  0.3349
    8TAL    C37 7961   4.218   4.428   0.303  0.3298 -0.0916  0.0231
    8TAL    C38 7962   4.364   4.386   0.322  0.5030  0.3900 -0.3351
    8TAL    C39 7963   4.375   4.239   0.357 -0.3116 -0.0908 -0.6845
    8TAL    C40 7964   4.521   4.202   0.362 -0.4334  0.4284 -0.1766
    9HTM    C41 7965   3.703   4.680   0.342 -0.2095 -0.1228 -0.3605
    9HTM    C42 7966   3.575   4.727   0.341 -0.2112 -0.1278 -0.3561
    9HTM    C43 7967   3.478   4.628   0.303 -0.2463 -0.2272 -0.0093
    9HTM    C44 7968   3.532   4.505   0.275 -0.2714 -0.2982  0.2508
    9HTM     S5 7969   3.711   4.506   0.295 -0.2524 -0.2442  0.0765
   10TAL    C45 7970   3.328   4.656   0.312  0.1232  0.4388 -0.1550
   10TAL    C46 7971   3.267   4.728   0.431 -0.5429  0.2942  0.2516
   10TAL    C47 7972   3.113   4.748   0.403  0.6094 -0.1695  0.2854
   10TAL    C48 7973   3.033   4.800   0.520 -0.2665 -0.0302  0.0724
   10TAL    C49 7974   3.036   4.723   0.650  0.0815 -0.4276 -0.3406
   10TAL    C50 7975   2.949   4.792   0.747 -0.2524 -1.0243 -0.4249
   11HTM    C51 7976   3.472   4.369   0.253  0.0599 -0.1278  0.5722
   11HTM    C52 7977   3.543   4.258   0.220  0.1945  0.1028  0.0735
   11HTM    C53 7978   3.461   4.143   0.190  0.3293  0.1771 -0.5890
   11HTM    C54 7979   3.328   4.167   0.199  0.2973  0.0034 -0.5954
   11HTM     S6 7980   3.294   4.338   0.248  0.0931 -0.2697  0.2413
   12TAL    C55 7981   3.528   4.008   0.164  0.6551 -0.4931 -0.7331
   12TAL    C56 7982   3.586   3.980   0.025  0.1692  0.1867  0.3888
   12TAL    C57 7983   3.496   3.975  -0.104 -0.1259  0.5635 -0.1323
   12TAL    C58 7984   3.411   4.098  -0.133  0.7121 -0.3446 -0.5151
   12TAL    C59 7985   3.481   4.227  -0.162 -0.0830 -0.3704  0.1832
   12TAL    C60 7986   3.407   4.346  -0.116 -0.0853 -0.4464 -0.1562
   13HTM    C61 7987   3.216   4.080   0.167 -0.2929 -0.0581  0.7418
   13HTM    C62 7988   3.213   3.946   0.144 -0.2202 -0.0252  0.5309
   13HTM    C63 7989   3.081   3.895   0.117 -0.1546 -0.0108  0.1860
   13HTM    C64 7990   2.984   3.990   0.118 -0.1772 -0.0330  0.1339
   13HTM     S7 7991   3.052   4.153   0.155 -0.2840 -0.0738  0.5194
   14TAL    C65 7992   3.061   3.751   0.080  0.3518 -0.3754 -0.8166
   14TAL    C66 7993   3.144   3.657   0.170  0.0584 -0.5120  0.5171
   14TAL    C67 7994   3.142   3.514   0.121 -0.5599 -0.4353  0.3437
   14TAL    C68 7995   3.010   3.444   0.126 -0.1442 -0.1272  0.5500
   14TAL    C69 7996   3.009   3.312   0.052  0.2712  0.3799 -0.4007
   14TAL    C70 7997   2.872   3.244   0.058  0.1739  0.4658 -0.0675
   15HTM    C71 7998   2.838   3.979   0.086 -0.0021  0.3825  0.5458
   15HTM    C72 7999   2.757   3.869   0.076  0.1364  0.2619  0.7386
   15HTM    C73 8000   2.622   3.901   0.038  0.1481  0.0020  0.4792
   15HTM    C74 8001   2.600   4.034   0.019  0.0186 -0.0753  0.0888
   15HTM     S8 8002   2.749   4.131   0.047 -0.1293  0.1761  0.0178
   16TAL    C75 8003   2.523   3.792   0.003  0.8003  0.1881 -0.5711
   16TAL    C76 8004   2.465   3.710   0.122  0.6371 -0.6988 -0.0338
   16TAL    C77 8005   2.368   3.776   0.221 -0.1229 -0.2314  0.2610
   16TAL    C78 8006   2.321   3.699   0.342  0.5123  0.3259  0.3425
   16TAL    C79 8007   2.420   3.658   0.448  0.0404  0.2242 -0.3014
   16TAL    C80 8008   2.344   3.603   0.570 -0.4952 -0.2046  0.4173
   17HTM    C81 8009   2.480   4.116  -0.005  0.2744 -0.0599 -0.1810
   17HTM    C82 8010   2.472   4.248   0.024  0.0960 -0.1183  0.0319
   17HTM    C83 8011   2.339   4.302   0.012 -0.0390 -0.3543  0.4492
   17HTM    C84 8012   2.246   4.210  -0.026  0.0368 -0.4760  0.5559
   17HTM     S9 8013   2.320   4.048  -0.051  0.2863 -0.3005  0.1324
   18TAL    C85 8014   2.329   4.451   0.024  0.4563  0.6613 -0.3374
   18TAL    C86 8015   2.328   4.496   0.163 -0.1814 -0.1531 -0.1689
   18TAL    C87 8016   2.318   4.639   0.188  0.8370 -0.3856 -0.3272
   18TAL    C88 8017   2.208   4.719   0.113  0.4327 -0.8463  0.1171
   18TAL    C89 8018   2.066   4.670   0.129 -0.4816 -0.4626  0.3314
   18TAL    C90 8019   1.955   4.744   0.052  0.2042 -0.4275 -0.1813
   19HTM    C91 8020   2.107   4.230  -0.069  0.0794  0.2422 -0.0749
   19HTM    C92 8021   2.036   4.162  -0.164  0.1459  0.2236 -0.1101
   19HTM    C93 8022   1.896   4.195  -0.166  0.1152  0.0916 -0.0963
   19HTM    C94 8023   1.859   4.287  -0.073  0.0252  0.0094 -0.0504
   19HTM    S10 8024   2.000   4.341   0.026 -0.0280  0.0931 -0.0211
   20TAL    C95 8025   1.804   4.133  -0.266  0.4889  0.7649  0.0700
   20TAL    C96 8026   1.748   3.989  -0.227  0.4356 -0.2268 -0.3963
   20TAL    C97 8027   1.859   3.880  -0.247  0.0165  0.0661  0.4664
   20TAL    C98 8028   1.811   3.732  -0.221 -0.5712  0.1950  0.1856
   20TAL    C99 8029   1.896   3.646  -0.302  0.1851 -0.4087  0.4189
   20TAL   C100 8030   1.845   3.499  -0.322 -0.6611 -0.3937 -0.0491
   21HTM   C101 8031   1.731   4.338  -0.040  0.5067 -0.0348  0.0686
   21HTM   C102 8032   1.608   4.280  -0.027  0.6324 -0.3150  0.0186
   21HTM   C103 8033   1.506   4.372   0.016  0.4060 -0.5479 -0.0248
   21HTM   C104 8034   1.550   4.499   0.036  0.1077 -0.4454 -0.0082
   21HTM    S11 8035   1.727   4.513   0.002  0.0896 -0.0434  0.0641
   22TAL   C105 8036   1.368   4.312   0.048  0.2493  0.6090  0.3020
   22TAL   C106 8037   1.362   4.222   0.174 -0.3510 -0.0255 -0.0528
   22TAL   C107 8038   1.223   4.172   0.210 -0.5255 -0.6703 -0.0959
   22TAL   C108 8039   1.218   4.090   0.336 -0.6852 -0.0473  0.3150
   22TAL   C109 8040   1.101   3.988   0.358 -0.2846  0.7818 -0.3670
   22TAL   C110 8041   1.056   3.891   0.247  0.1033  0.0556  0.5956
   23HTM   C111 8042   1.476   4.612   0.082  0.8257  0.0475  0.0728
   23HTM   C112 8043   1.345   4.646   0.064  0.8014 -0.2294 -0.2647
   23HTM   C113 8044   1.309   4.772   0.121  0.3825 -0.3085 -0.3511
   23HTM   C114 8045   1.412   4.836   0.184  0.0874 -0.0919 -0.0795
   23HTM    S12 8046   1.565   4.740   0.174  0.3175  0.2314  0.3095
   24TAL   C115 8047   1.171   4.838   0.108  0.6375  0.4304  0.2709
   24TAL   C116 8048   1.065   4.780   0.010  0.3188  0.0510 -0.6995
   24TAL   C117 8049   0.929   4.843   0.035  0.0333 -0.2025  0.2614
   24TAL   C118 8050   0.812   4.784  -0.043 -0.4548  0.2643 -0.6907
   24TAL   C119 8051   0.814   4.797  -0.192 -0.4883  0.7507 -0.2139
   24TAL   C120 8052   0.689   4.754  -0.259 -0.0637 -0.0645  0.0808
   25HTM   C121 8053   1.419   4.961   0.258 -0.5819  0.2290 -0.3599
   25HTM   C122 8054   1.375   4.990   0.384 -0.5605  0.1287 -0.3300
   25HTM   C123 8055   1.373   5.130   0.415 -0.1065  0.0765 -0.0567
   25HTM   C124 8056   1.416   5.209   0.312  0.2184  0.1366  0.1218
   25HTM    S13 8057   1.461   5.111   0.167 -0.0258  0.2653 -0.0428
   26TAL   C125 8058   1.335   5.182   0.554  0.0434 -0.2984  0.0668
   26TAL   C126 8059   1.217   5.108   0.617  0.6836 -0.0546 -0.1739
   26TAL   C127 8060   1.252   4.980   0.705  0.4010 -0.3978  0.0317
   26TAL   C128 8061   1.382   4.977   0.788  0.4417 -0.4220 -0.1957
   26TAL   C129 8062   1.423   4.834   0.828  0.6502  0.4055 -0.2101
   26TAL   C130 8063   1.548   4.829   0.902  0.3109  0.0601  0.2377
   27HTM   C131 8064   1.418   5.355   0.283  0.5627  0.2591  0.0298
   27HTM   C132 8065   1.436   5.416   0.162  0.7292  0.3662  0.1083
   27HTM   C133 8066   1.435   5.560   0.169  0.5087  0.3603  0.2035
   27HTM   C134 8067   1.416   5.609   0.295  0.1740  0.2488  0.1976
   27HTM    S14 8068   1.398   5.476   0.415  0.1109  0.1418  0.0704
   28TAL   C135 8069   1.439   5.652   0.049  0.3519  0.9371 -0.2433
   28TAL   C136 8070   1.542   5.652  -0.068  0.1082 -0.4207 -0.2680
   28TAL   C137 8071   1.534   5.535  -0.164  0.1556 -1.1154 -0.2242
   28TAL   C138 8072   1.634   5.431  -0.116  0.4004  0.6954  0.6876
   28TAL   C139 8073   1.612   5.284  -0.159  0.5195 -0.0433 -0.4385
   28TAL   C140 8074   1.719   5.194  -0.097  0.4674  0.2695 -0.4083
   29HTM   C141 8075   1.407   5.748   0.345  0.0396  0.0462 -0.3372
   29HTM   C142 8076   1.333   5.794   0.450  0.1166 -0.2382 -0.1556
   29HTM   C143 8077   1.364   5.929   0.488  0.0588 -0.2995  0.1103
   29HTM   C144 8078   1.462   5.986   0.412 -0.0623 -0.0613  0.1314
   29HTM    S15 8079   1.523   5.872   0.286 -0.1131  0.2607 -0.1853
   30TAL   C145 8080   1.285   5.991   0.599  0.0333 -0.3484  0.4926
   30TAL   C146 8081   1.155   6.065   0.560  0.2491  0.0051  0.3413
   30TAL   C147 8082   1.051   5.976   0.489 -0.0864  0.2004 -0.5060
   30TAL   C148 8083   0.911   6.035   0.449 -0.1349 -0.3289  0.0877
   30TAL   C149 8084   0.831   6.102   0.552 -0.2489  0.8246 -0.8624
   30TAL   C150 8085   0.689   6.116   0.508  0.5253 -0.2837 -0.2164
   31HTM   C151 8086   1.521   6.120   0.411 -0.4722 -0.1242 -0.2091
   31HTM   C152 8087   1.591   6.164   0.303 -0.3304 -0.0806 -0.0990
   31HTM   C153 8088   1.608   6.307   0.299  0.0129 -0.1111  0.1870
   31HTM   C154 8089   1.550   6.372   0.404  0.1330 -0.1786  0.2949
   31HTM    S16 8090   1.470   6.256   0.517 -0.1807 -0.2083  0.0419
   32TAL   C155 8091   1.654   6.366   0.169  0.2037  0.3536  0.0153
   32TAL   C156 8092   1.787   6.440   0.177  0.0079  0.3979 -0.3974
   32TAL   C157 8093   1.799   6.539   0.058  0.2466  0.0549  0.0416
   32TAL   C158 8094   1.920   6.632   0.057  0.2759 -0.5061 -0.2356
   32TAL   C159 8095   2.056   6.570   0.032 -0.0782  0.6737  0.0220
   32TAL   C160 8096   2.177   6.662   0.052  0.1175 -0.0803  0.2739
   33HTM   C161 8097   1.529   6.512   0.435 -0.2194  0.4211  0.1607
   33HTM   C162 8098   1.482   6.556   0.555 -0.4694  0.7470 -0.0567
   33HTM   C163 8099   1.450   6.697   0.556 -0.4640  0.7539 -0.5017
   33HTM   C164 8100   1.473   6.759   0.437 -0.2100  0.4325 -0.6236
   33HTM    S17 8101   1.537   6.645   0.313  0.0442  0.0945 -0.1825
   34TAL   C165 8102   1.422   6.770   0.688 -0.3046  0.0903  0.4129
   34TAL   C166 8103   1.284   6.721   0.748  0.0338  0.3607 -0.3838
   34TAL   C167 8104   1.159   6.799   0.703  0.0013  0.5619 -0.2727
   34TAL   C168 8105   1.167   6.948   0.727  0.3109  0.1462 -1.0192
   34TAL   C169 8106   1.029   7.011   0.690 -0.3782  0.4960 -0.1210
   34TAL   C170 8107   1.019   7.160   0.689  0.3538 -0.1361  0.1126
   35HTM   C171 8108   1.454   6.896   0.398  0.3109  0.1780 -0.1272
   35HTM   C172 8109   1.342   6.972   0.414  0.2967  0.1705 -0.1914
   35HTM   C173 8110   1.358   7.109   0.373  0.3124  0.1726 -0.1770
   35HTM   C174 8111   1.483   7.138   0.327  0.3385  0.1822 -0.1017
   35HTM    S18 8112   1.591   6.993   0.330  0.3454  0.1885 -0.0428
   36TAL   C175 8113   1.232   7.192   0.388  0.0144  0.4635 -0.4184
   36TAL   C176 8114   1.166   7.266   0.270  0.5997  0.1299  0.4012
   36TAL   C177 8115   1.064   7.362   0.319 -0.0736 -0.1397 -0.3192
   36TAL   C178 8116   1.011   7.442   0.193  0.1587  0.1038 -0.6491
   36TAL   C179 8117   0.954   7.577   0.238 -0.1888  0.1641 -0.0531
   36TAL   C180 8118   0.896   7.658   0.119  0.0495 -0.1878 -0.1255
   37HTM   C181 8119   1.524   7.272   0.276 -0.0533  0.3725  0.1480
   37HTM   C182 8120   1.484   7.393   0.324 -0.1993  0.4501 -0.1647
   37HTM   C183 8121   1.532   7.505   0.247 -0.4347  0.3068 -0.5249
   37HTM   C184 8122   1.609   7.469   0.140 -0.4681  0.1203 -0.4868
   37HTM    S19 8123   1.626   7.290   0.128 -0.2029  0.1111  0.0108
   38TAL   C185 8124   1.493   7.646   0.285 -0.3068  0.1983 -0.0169
   38TAL   C186 8125   1.356   7.689   0.245 -0.1171 -0.9262  0.6310
   38TAL   C187 8126   1.344   7.844   0.207  0.1712 -0.0646  0.5433
   38TAL   C188 8127   1.196   7.864   0.183 -0.2273  0.0022 -0.3540
   38TAL   C189 8128   1.152   8.002   0.145  0.3190 -0.0470  0.4733
   38TAL   C190 8129   0.999   8.009   0.108 -0.1850  0.0327 -0.2054
   39HTM   C191 8130   1.671   7.543   0.032  0.3920 -0.2703 -0.1875
   39HTM   C192 8131   1.768   7.496  -0.051  0.4644 -0.1194 -0.1879
   39HTM   C193 8132   1.834   7.599  -0.127  0.2901 -0.0198 -0.2031
   39HTM   C194 8133   1.787   7.725  -0.101  0.0846 -0.0944 -0.2143
   39HTM    S20 8134   1.655   7.722   0.021  0.0956 -0.2981 -0.2068
   40TAL   C195 8135   1.954   7.569  -0.221 -0.0044  0.1949 -0.2795
   40TAL   C196 8136   2.023   7.434  -0.218 -0.1413 -0.5672  0.0817
   40TAL   C197 8137   2.111   7.428  -0.342 -0.0265  0.5622  0.6731
   40TAL   C198 8138   2.228   7.331  -0.334  0.2322 -0.5644 -0.1313
   40TAL   C199 8139   2.346   7.368  -0.250 -0.3188 -0.5526  0.3030
   40TAL   C200 8140   2.459   7.271  -0.257 -0.0570  0.5971  0.0955
   41HTM   C201 8141   1.822   7.851  -0.160  0.3075 -0.1732 -0.2957
   41HTM   C202 8142   1.739   7.922  -0.241  0.1497 -0.6483 -0.5488
   41HTM   C203 8143   1.801   8.035  -0.304 -0.2418 -0.4244 -0.5364
   41HTM   C204 8144   1.932   8.051  -0.271 -0.3824  0.2212 -0.2732
   41HTM    S21 8145   1.988   7.923  -0.157 -0.0286  0.5995 -0.0197
   42TAL   C205 8146   1.732   8.128  -0.407  0.1194 -0.3814 -0.3367
   42TAL   C206 8147   1.625   8.062  -0.503 -0.0117  0.5491 -0.1971
   42TAL   C207 8148   1.686   7.990  -0.623 -0.3118 -0.4766  0.1236
   42TAL   C208 8149   1.587   7.917  -0.717 -0.1731  0.1627  0.4458
   42TAL   C209 8150   1.614   7.899  -0.865  0.1344 -0.0419  0.0104
   42TAL   C210 8151   1.654   8.027  -0.936  0.0863 -0.1081 -0.1529
   43HTM   C211 8152   2.036   8.143  -0.318  0.0341 -0.3791  0.2871
   43HTM   C212 8153   2.025   8.275  -0.349 -0.2384 -0.5217 -0.2499
   43HTM   C213 8154   2.151   8.338  -0.380 -0.3874 -0.4244 -0.6595
   43HTM   C214 8155   2.257   8.253  -0.374 -0.2286 -0.2079 -0.4345
   43HTM    S22 8156   2.207   8.087  -0.327  0.1244 -0.1096  0.3181
   44TAL   C215 8157   2.166   8.486  -0.414 -0.3371 -0.8887  0.0265
   44TAL   C216 8158   2.048   8.583  -0.398 -0.0294  0.7013  0.2851
   44TAL   C217 8159   1.934   8.577  -0.504 -0.1192 -0.1317  0.2623
   44TAL   C218 8160   1.837   8.694  -0.499  0.0433 -0.0264  0.7704
   44TAL   C219 8161   1.733   8.712  -0.611  0.0522 -0.2069 -1.1932
   44TAL   C220 8162   1.732   8.857  -0.655  0.0007  0.4025  1.3122
   45HTM   C221 8163   2.399   8.272  -0.401  0.4991  0.2397 -0.3444
   45HTM   C222 8164   2.484   8.372  -0.364  0.4207  0.5317 -0.9465
   45HTM   C223 8165   2.622   8.346  -0.396  0.4243  0.5083 -0.9122
   45HTM   C224 8166   2.642   8.226  -0.457  0.5052  0.1981 -0.2840
   45HTM    S23 8167   2.488   8.136  -0.479  0.5839 -0.0896  0.3174
   46TAL   C225 8168   2.727   8.452  -0.377 -0.1303 -0.3833  0.0023
   46TAL   C226 8169   2.678   8.595  -0.358 -0.4700  0.2643  0.0171
   46TAL   C227 8170   2.795   8.684  -0.308 -1.3732  0.1809  0.1753
   46TAL   C228 8171   2.757   8.830  -0.282  0.6112  0.3161  0.3811
   46TAL   C229 8172   2.862   8.898  -0.189  0.1098 -0.1965  0.8621
   46TAL   C230 8173   2.824   9.040  -0.160  0.1288  0.2140  0.1829
   47HTM   C231 8174   2.764   8.157  -0.493 -0.7253 -0.5813  0.0172
   47HTM   C232 8175   2.864   8.119  -0.409 -0.9552 -0.6895  0.2422
   47HTM   C233 8176   2.972   8.051  -0.475 -0.5132 -0.1125  0.3591
   47HTM   C234 8177   2.954   8.037  -0.609  0.0538  0.4356  0.2233
   47HTM    S24 8178   2.799   8.110  -0.664  0.0734  0.2653 -0.0650
   48TAL   C235 8179   3.088   7.994  -0.391  0.4721 -0.0848  0.3501
   48TAL   C236 8180   3.218   7.947  -0.455  0.5983  0.2111 -0.1136
   48TAL   C237 8181   3.339   7.944  -0.351  0.1932 -0.1084  0.0898
   48TAL   C238 8182   3.469   7.894  -0.414  0.6878 -0.3135 -0.0356
   48TAL   C239 8183   3.595   7.912  -0.333 -0.4219  0.1970  0.4866
   48TAL   C240 8184   3.730   7.898  -0.411 -0.0217 -0.0867  0.0183
    1HTM     C1 8185   7.988   4.502   2.579 -0.2205 -0.0500  0.0533
    1HTM     C2 8186   8.049   4.583   2.488 -0.2012 -0.1512 -0.0248
    1HTM     C3 8187   7.973   4.701   2.455 -0.0751 -0.0536  0.0297
    1HTM     C4 8188   7.853   4.709   2.520  0.0018  0.1218  0.1493
    1HTM     S1 8189   7.828   4.568   2.630 -0.0798  0.1776  0.2027
    2TAL     C5 8190   8.036   4.803   2.353  0.3401  0.5522  0.1532
    2TAL     C6 8191   8.159   4.751   2.271 -0.0965 -0.0615 -0.2434
    2TAL     C7 8192   8.210   4.850   2.168 -0.0526  0.3090 -0.2087
    2TAL     C8 8193   8.291   4.790   2.055  0.4846  0.0420 -0.4362
    2TAL     C9 8194   8.387   4.673   2.062 -0.7189  0.0318 -0.6437
    2TAL    C10 8195   8.485   4.674   1.946  0.6448  0.0264 -0.4483
    3HTM    C11 8196   7.747   4.812   2.512 -0.0223 -0.2283  0.0538
    3HTM    C12 8197   7.616   4.779   2.496 -0.0761 -0.1042  0.2240
    3HTM    C13 8198   7.531   4.891   2.466  0.0250 -0.0527  0.1281
    3HTM    C14 8199   7.597   5.010   2.460  0.1562 -0.1371 -0.1154
    3HTM     S2 8200   7.773   4.990   2.491  0.1621 -0.2897 -0.2433
    4TAL    C15 8201   7.383   4.864   2.442  0.7590 -0.2420 -0.2685
    4TAL    C16 8202   7.288   4.931   2.532  0.4565 -0.0798 -0.0960
    4TAL    C17 8203   7.306   4.899   2.677  0.4531  0.3413 -0.3431
    4TAL    C18 8204   7.204   4.972   2.766 -0.8845  0.4698 -0.0395
    4TAL    C19 8205   7.186   5.124   2.766 -0.0187  0.2476 -0.0106
    4TAL    C20 8206   7.046   5.161   2.822  0.1216 -0.4168  0.1850
    5HTM    C21 8207   7.548   5.144   2.428 -0.1046  0.0137 -0.4429
    5HTM    C22 8208   7.433   5.210   2.459 -0.1898 -0.0374 -0.6436
    5HTM    C23 8209   7.439   5.352   2.433 -0.1833 -0.0238 -0.5683
    5HTM    C24 8210   7.558   5.394   2.382 -0.0932  0.0377 -0.3100
    5HTM     S3 8211   7.674   5.256   2.362 -0.0089  0.0842 -0.1408
    6TAL    C25 8212   7.326   5.450   2.467 -0.4786  0.1292  0.1875
    6TAL    C26 8213   7.195   5.401   2.527 -0.0753  0.5191 -0.0766
    6TAL    C27 8214   7.095   5.507   2.570 -0.1085 -0.2942 -0.7512
    6TAL    C28 8215   6.980   5.443   2.656 -0.8361 -0.0393  0.2022
    6TAL    C29 8216   6.866   5.377   2.585  0.7524  0.5793  0.0158
    6TAL    C30 8217   6.760   5.320   2.673 -0.1098  0.5439 -0.3484
    7HTM    C31 8218   7.611   5.522   2.337  0.0066 -0.0501 -0.2908
    7HTM    C32 8219   7.741   5.549   2.309  0.0758  0.0412  0.1155
    7HTM    C33 8220   7.763   5.682   2.257  0.1814  0.1495  0.4325
    7HTM    C34 8221   7.649   5.756   2.246  0.1926  0.1406  0.2682
    7HTM     S4 8222   7.504   5.663   2.300  0.0700 -0.0061 -0.3044
    8TAL    C35 8223   7.902   5.734   2.226  0.0813  0.0496 -0.1228
    8TAL    C36 8224   8.034   5.668   2.281 -0.1931 -0.7553  0.3935
    8TAL    C37 8225   8.058   5.659   2.435 -0.0282 -0.2247  0.2027
    8TAL    C38 8226   8.197   5.615   2.471 -0.1130 -0.4441  0.6758
    8TAL    C39 8227   8.210   5.584   2.618 -0.5274 -0.6355 -0.0016
    8TAL    C40 8228   8.346   5.524   2.651  0.2061  0.7988 -0.3563
    9HTM    C41 8229   7.623   5.899   2.206 -0.5485  0.3317 -0.0503
    9HTM    C42 8230   7.499   5.955   2.192 -0.4089  0.4604 -0.8088
    9HTM    C43 8231   7.502   6.093   2.152 -0.0250  0.4089 -0.9601
    9HTM    C44 8232   7.628   6.143   2.136  0.1280  0.2409 -0.3171
    9HTM     S5 8233   7.754   6.018   2.170 -0.2031  0.1338  0.5365
   10TAL    C45 8234   7.380   6.172   2.112 -0.4120  0.2730 -0.6048
   10TAL    C46 8235   7.244   6.105   2.089 -0.8157 -0.5076 -0.1608
   10TAL    C47 8236   7.134   6.212   2.078 -0.2990  0.4340 -0.1414
   10TAL    C48 8237   6.991   6.167   2.097 -0.0521 -0.1396 -0.4267
   10TAL    C49 8238   6.901   6.287   2.099 -0.0932  0.7236 -0.4488
   10TAL    C50 8239   6.755   6.255   2.115  0.3072 -0.5730 -0.3255
   11HTM    C51 8240   7.670   6.275   2.089 -0.2137  0.1223  0.2627
   11HTM    C52 8241   7.692   6.320   1.962 -0.3920 -0.0465  0.1712
   11HTM    C53 8242   7.727   6.459   1.955 -0.2179 -0.0999 -0.0470
   11HTM    C54 8243   7.731   6.521   2.077  0.0929  0.0284 -0.1218
   11HTM     S6 8244   7.691   6.406   2.211  0.1905  0.2281  0.0790
   12TAL    C55 8245   7.765   6.530   1.821 -0.0550 -0.6369 -0.5784
   12TAL    C56 8246   7.865   6.450   1.736 -0.5412 -0.5469 -0.1222
   12TAL    C57 8247   8.002   6.418   1.798  0.4920  0.2525 -0.0273
   12TAL    C58 8248   8.078   6.538   1.846  0.1900 -0.2687 -0.5438
   12TAL    C59 8249   8.195   6.505   1.925  0.4442 -0.2629 -0.5096
   12TAL    C60 8250   8.265   6.632   1.955 -0.1375 -0.0454  0.2495
   13HTM    C61 8251   7.772   6.652   2.128 -0.1426 -0.0649  0.1189
   13HTM    C62 8252   7.840   6.685   2.242  0.2503  0.0076 -0.1360
   13HTM    C63 8253   7.866   6.826   2.255  0.5805 -0.0215 -0.4743
   13HTM    C64 8254   7.818   6.900   2.151  0.4390 -0.1166 -0.4775
   13HTM     S7 8255   7.736   6.797   2.028 -0.1264 -0.1767 -0.0501
   14TAL    C65 8256   7.936   6.881   2.375  0.2012 -0.1074 -0.8631
   14TAL    C66 8257   8.063   6.807   2.434 -0.0434  0.0991 -0.0902
   14TAL    C67 8258   8.188   6.798   2.345  0.3073  0.4040 -0.4546
   14TAL    C68 8259   8.260   6.666   2.378  0.0396  0.0044  0.0792
   14TAL    C69 8260   8.411   6.660   2.363 -0.8008  0.2468  0.3020
   14TAL    C70 8261   8.467   6.522   2.378  0.1734 -0.5823 -0.5719
   15HTM    C71 8262   7.818   7.040   2.125 -0.2660  0.1235 -0.3305
   15HTM    C72 8263   7.876   7.113   2.026 -0.2868  0.1903 -0.2931
   15HTM    C73 8264   7.844   7.254   2.031 -0.2882  0.1862 -0.1936
   15HTM    C74 8265   7.761   7.287   2.134 -0.2683  0.1158 -0.1553
   15HTM     S8 8266   7.718   7.143   2.234 -0.2467  0.0493 -0.2424
   16TAL    C75 8267   7.899   7.354   1.934  0.3137  0.5091 -0.3234
   16TAL    C76 8268   8.050   7.382   1.948 -0.2876 -0.0080 -0.1133
   16TAL    C77 8269   8.091   7.519   1.879  0.2478  0.9970  0.2949
   16TAL    C78 8270   8.229   7.584   1.889  0.4288  1.0154 -0.3950
   16TAL    C79 8271   8.347   7.498   1.846  0.1180 -0.4661 -0.3427
   16TAL    C80 8272   8.486   7.559   1.858 -0.1833  0.3578 -0.3373
   17HTM    C81 8273   7.702   7.409   2.181  0.1222 -0.1927  0.3155
   17HTM    C82 8274   7.591   7.421   2.259  0.1125  0.0648  0.2607
   17HTM    C83 8275   7.548   7.558   2.276  0.2222  0.1392 -0.0359
   17HTM    C84 8276   7.626   7.649   2.212  0.3154 -0.0619 -0.2073
   17HTM     S9 8277   7.761   7.569   2.123  0.2717 -0.3625 -0.0058
   18TAL    C85 8278   7.421   7.581   2.355  0.4047  0.5666  0.1950
   18TAL    C86 8279   7.293   7.525   2.304 -0.1966 -0.5932  0.5531
   18TAL    C87 8280   7.165   7.561   2.369  0.0678  0.6256  0.0184
   18TAL    C88 8281   7.130   7.700   2.398 -0.5155 -0.4445 -0.8464
   18TAL    C89 8282   7.089   7.789   2.281  0.2547  0.2239  0.2713
   18TAL    C90 8283   7.111   7.938   2.303  0.3554 -0.1472 -0.4484
   19HTM    C91 8284   7.629   7.798   2.208  0.1816  0.5906 -0.1288
   19HTM    C92 8285   7.738   7.869   2.167  0.4573  0.6583  0.6980
   19HTM    C93 8286   7.732   8.009   2.200  0.3796  0.5493  1.1476
   19HTM    C94 8287   7.619   8.045   2.267  0.0448  0.3989  0.6641
   19HTM    S10 8288   7.510   7.903   2.293 -0.2008  0.3831 -0.4054
   20TAL    C95 8289   7.830   8.118   2.158 -0.0260  0.3029 -0.2670
   20TAL    C96 8290   7.919   8.091   2.036  0.3114  0.5731  0.2921
   20TAL    C97 8291   8.056   8.035   2.071  0.3027  0.6769  0.6404
   20TAL    C98 8292   8.115   8.002   1.938 -0.6366  0.1398  0.0301
   20TAL    C99 8293   8.264   7.975   1.919  0.0805  0.2926 -0.0699
   20TAL   C100 8294   8.297   7.905   1.787  0.1719 -0.7234 -0.1571
   21HTM   C101 8295   7.568   8.179   2.315  0.0208  0.2438 -0.2847
   21HTM   C102 8296   7.449   8.241   2.294  0.1895  0.4325 -0.6914
   21HTM   C103 8297   7.443   8.374   2.349  0.1457  0.3681 -0.5406
   21HTM   C104 8298   7.557   8.413   2.412 -0.0572  0.1302 -0.0192
   21HTM    S11 8299   7.683   8.284   2.406 -0.2090 -0.0329  0.3248
   22TAL   C105 8300   7.312   8.449   2.333 -0.3127  0.5399  0.7163
   22TAL   C106 8301   7.289   8.512   2.196  0.0251 -0.4564 -0.0848
   22TAL   C107 8302   7.405   8.605   2.129  0.3580  0.0849 -0.0007
   22TAL   C108 8303   7.537   8.541   2.082  0.3265 -0.3171 -0.5329
   22TAL   C109 8304   7.505   8.446   1.965 -0.3726  0.1645  0.3099
   22TAL   C110 8305   7.622   8.357   1.927 -0.4362  0.5430  0.2158
   23HTM   C111 8306   7.583   8.538   2.486  0.0918  0.4935 -0.0387
   23HTM   C112 8307   7.710   8.578   2.517 -0.0660  0.6514  0.4133
   23HTM   C113 8308   7.720   8.715   2.558 -0.4034  0.6251  0.5828
   23HTM   C114 8309   7.600   8.781   2.558 -0.5029  0.4477  0.2601
   23HTM    S12 8310   7.465   8.673   2.506 -0.1752  0.2987 -0.2871
   24TAL   C115 8311   7.856   8.771   2.599 -0.5044 -0.6413  0.0039
   24TAL   C116 8312   7.937   8.693   2.702 -0.2962  0.2651 -0.4854
   24TAL   C117 8313   8.085   8.734   2.713  0.0305  0.2603  0.6306
   24TAL   C118 8314   8.183   8.630   2.773  0.2990  0.0719  0.0684
   24TAL   C119 8315   8.199   8.488   2.700 -0.0381  0.1635  0.1789
   24TAL   C120 8316   8.266   8.379   2.781 -0.6269  0.0619  0.5254
   25HTM   C121 8317   7.573   8.921   2.592  0.2471 -0.1548 -0.2494
   25HTM   C122 8318   7.479   8.974   2.676  0.7536 -0.4301  0.4983
   25HTM   C123 8319   7.473   9.118   2.673  0.7482 -0.4172  1.0294
   25HTM   C124 8320   7.562   9.175   2.587  0.2369 -0.1325  0.6864
   25HTM    S13 8321   7.661   9.050   2.502 -0.2807  0.1440 -0.3420
   26TAL   C125 8322   7.369   9.207   2.745  0.2887 -0.6669 -0.3798
   26TAL   C126 8323   7.312   9.147   2.881  0.7230 -0.4295 -0.4644
   26TAL   C127 8324   7.420   9.145   2.996 -0.2415  0.6084 -0.6404
   26TAL   C128 8325   7.477   9.278   3.044  0.3436  0.2219  0.0944
   26TAL   C129 8326   7.405   9.343   3.160  0.1190  0.4575  0.2637
   26TAL   C130 8327   7.459   9.480   3.199 -0.1406 -0.3048  0.2349
   27HTM   C131 8328   7.588   9.314   2.567  0.2308  0.2175  0.5606
   27HTM   C132 8329   7.712   9.368   2.587  0.1144  0.4112  0.7640
   27HTM   C133 8330   7.715   9.511   2.574 -0.0010  0.3746  0.3421
   27HTM   C134 8331   7.594   9.567   2.543  0.0275  0.1531 -0.1830
   27HTM    S14 8332   7.466   9.441   2.529  0.2040 -0.0279 -0.1856
   28TAL   C135 8333   7.845   9.583   2.612  0.3547 -0.1531 -0.1707
   28TAL   C136 8334   7.912   9.559   2.746  0.1913 -0.1244 -0.5936
   28TAL   C137 8335   7.820   9.572   2.874 -0.2643  0.0564  0.5393
   28TAL   C138 8336   7.728   9.699   2.881  0.9495 -0.0245  0.0122
   28TAL   C139 8337   7.781   9.841   2.849 -0.3562 -0.5349  0.1971
   28TAL   C140 8338   7.673   9.935   2.880  0.2159 -0.4666 -0.0432
   29HTM   C141 8339   7.552   9.709   2.536 -0.0480  0.0286 -0.3480
   29HTM   C142 8340   7.625   9.815   2.491 -0.0730  0.1443 -0.1136
   29HTM   C143 8341   7.555   9.941   2.502 -0.1073  0.1027  0.1513
   29HTM   C144 8342   7.430   9.931   2.555 -0.1086 -0.0446  0.1190
   29HTM    S15 8343   7.390   9.759   2.596 -0.0666 -0.1431 -0.2514
   30TAL   C145 8344   7.622  10.073   2.477  0.2421 -0.4767  0.0538
   30TAL   C146 8345   7.723  10.080   2.362 -0.0700 -0.1124  0.2039
   30TAL   C147 8346   7.814  10.203   2.358 -0.2948 -0.4969 -0.0580
   30TAL   C148 8347   7.929  10.201   2.251  0.3198 -0.2360 -0.0282
   30TAL   C149 8348   7.899  10.273   2.121 -0.1309 -0.0683 -0.4639
   30TAL   C150 8349   8.026  10.345   2.075 -0.3174  0.1735  0.4272
   31HTM   C151 8350   7.336  10.038   2.586  0.2466  0.1821  0.1601
   31HTM   C152 8351   7.339  10.128   2.688 -0.0124 -0.0941  0.4108
   31HTM   C153 8352   7.235  10.228   2.680 -0.0076 -0.0871  0.4343
   31HTM   C154 8353   7.154  10.214   2.571  0.2549  0.1943  0.2013
   31HTM    S16 8354   7.203  10.073   2.470  0.5185  0.4745 -0.0676
   32TAL   C155 8355   7.217  10.328   2.793 -0.1064  0.0500 -0.2474
   32TAL   C156 8356   7.325  10.437   2.803 -0.6410 -0.7549 -0.3557
   32TAL   C157 8357   7.368  10.526   2.688  0.3884 -0.3243 -0.4396
   32TAL   C158 8358   7.260  10.608   2.623  0.3184  0.3104  0.6162
   32TAL   C159 8359   7.295  10.699   2.510  0.3211  0.4138 -0.2145
   32TAL   C160 8360   7.174  10.748   2.436  0.6815  0.3413 -0.0370
   33HTM   C161 8361   7.056  10.308   2.511 -0.2070 -0.6357  0.0234
   33HTM   C162 8362   7.050  10.369   2.389 -0.2964 -0.6052  0.0429
   33HTM   C163 8363   6.935  10.454   2.372 -0.2246 -0.4748  0.2072
   33HTM   C164 8364   6.853  10.458   2.481 -0.0805 -0.4056  0.3134
   33HTM    S17 8365   6.915  10.354   2.615 -0.0241 -0.5007  0.2129
   34TAL   C165 8366   6.921  10.523   2.241  0.2919  0.1345 -0.0856
   34TAL   C166 8367   7.047  10.568   2.161 -0.2837  0.4219 -0.5125
   34TAL   C167 8368   7.007  10.649   2.041  0.9751 -0.5714  0.1227
   34TAL   C168 8369   7.124  10.674   1.947  0.2735 -0.0443  0.1548
   34TAL   C169 8370   7.250  10.723   1.998  0.1067  0.1846  0.2267
   34TAL   C170 8371   7.366  10.701   1.902  0.7164 -0.5395 -0.0456
   35HTM   C171 8372   6.731  10.532   2.501  0.1906  0.1076 -0.1264
   35HTM   C172 8373   6.653  10.514   2.611  0.2849 -0.0668 -0.0879
   35HTM   C173 8374   6.521  10.569   2.598  0.2351 -0.1501  0.0676
   35HTM   C174 8375   6.497  10.628   2.477  0.1027 -0.0391  0.1477
   35HTM    S18 8376   6.643  10.620   2.370  0.0306  0.1808  0.0318
   36TAL   C175 8377   6.418  10.581   2.715 -0.0554  0.1562 -0.1444
   36TAL   C176 8378   6.361  10.447   2.765  0.5826  0.0657 -0.7632
   36TAL   C177 8379   6.448  10.351   2.851  0.2353  0.0466  0.2139
   36TAL   C178 8380   6.387  10.230   2.913  0.8714  0.0536 -0.3387
   36TAL   C179 8381   6.459  10.147   3.015  0.7350 -0.2835 -0.3490
   36TAL   C180 8382   6.369  10.027   3.051 -0.2489 -0.2658 -0.0076
   37HTM   C181 8383   6.390  10.700   2.424  0.0708 -0.1252 -0.0413
   37HTM   C182 8384   6.397  10.830   2.381  0.0751 -0.1587 -0.1414
   37HTM   C183 8385   6.269  10.893   2.367  0.0720 -0.1999 -0.2962
   37HTM   C184 8386   6.164  10.812   2.398  0.0654 -0.1980 -0.3139
   37HTM    S19 8387   6.220  10.648   2.450  0.0623 -0.1436 -0.1353
   38TAL   C185 8388   6.250  11.033   2.318  0.3475  0.4267  0.5977
   38TAL   C186 8389   6.333  11.136   2.400  0.5166  0.0861  0.1384
   38TAL   C187 8390   6.330  11.282   2.365 -0.2392  0.2406 -0.0201
   38TAL   C188 8391   6.202  11.366   2.407 -0.0812  0.1118 -0.2384
   38TAL   C189 8392   6.170  11.488   2.328 -0.0405 -0.4769  0.1078
   38TAL   C190 8393   6.288  11.587   2.302  0.0230 -0.1169 -0.2357
   39HTM   C191 8394   6.021  10.842   2.411  0.0689  0.2494  0.3981
   39HTM   C192 8395   5.921  10.758   2.372  0.2263  0.1416  0.2244
   39HTM   C193 8396   5.789  10.809   2.399  0.1237  0.0232 -0.0541
   39HTM   C194 8397   5.788  10.932   2.458 -0.1118  0.0407 -0.0924
   39HTM    S20 8398   5.956  10.993   2.485 -0.2235  0.2094  0.2226
   40TAL   C195 8399   5.659  10.744   2.352  0.2063  0.2874 -0.1032
   40TAL   C196 8400   5.668  10.611   2.279  0.4127 -0.1803 -0.3118
   40TAL   C197 8401   5.545  10.543   2.230  0.2345  0.4156 -0.0189
   40TAL   C198 8402   5.494  10.616   2.108  0.1869  0.2669 -0.1294
   40TAL   C199 8403   5.371  10.549   2.038  0.0957  0.1426 -0.0439
   40TAL   C200 8404   5.337  10.623   1.905  0.1147  0.1952  0.3038
   41HTM   C201 8405   5.686  11.019   2.509 -0.0616 -0.6161 -0.1246
   41HTM   C202 8406   5.668  11.056   2.639  0.0365 -0.7899 -0.0620
   41HTM   C203 8407   5.556  11.143   2.660  0.3417 -0.4261  0.0679
   41HTM   C204 8408   5.487  11.174   2.546  0.4761  0.0251  0.1044
   41HTM    S21 8409   5.561  11.093   2.402  0.2257  0.0255 -0.0237
   42TAL   C205 8410   5.517  11.192   2.799 -0.2494 -0.2390  0.4884
   42TAL   C206 8411   5.600  11.304   2.866 -0.0508 -0.3314  0.6581
   42TAL   C207 8412   5.607  11.426   2.782 -0.0421 -0.1351  0.0112
   42TAL   C208 8413   5.677  11.533   2.858  0.0349  0.5709 -0.1907
   42TAL   C209 8414   5.624  11.670   2.818  0.1821  0.0104 -0.6355
   42TAL   C210 8415   5.681  11.776   2.916  0.3118 -0.3076  1.1471
   43HTM   C211 8416   5.379  11.267   2.517  0.2718 -0.0501 -0.3997
   43HTM   C212 8417   5.383  11.403   2.509  0.3965 -0.0516 -0.3642
   43HTM   C213 8418   5.254  11.464   2.495  0.4346  0.0845 -0.1298
   43HTM   C214 8419   5.151  11.375   2.492  0.3394  0.1899  0.0134
   43HTM    S22 8420   5.210  11.205   2.508  0.1926  0.1248 -0.1379
   44TAL   C215 8421   5.236  11.618   2.490  0.8940  0.1196 -0.5731
   44TAL   C216 8422   5.257  11.686   2.348 -0.0364  0.0331  0.1418
   44TAL   C217 8423   5.309  11.830   2.350  0.3413 -0.2764  0.2180
   44TAL   C218 8424   5.459  11.841   2.376 -0.1527  0.4544 -0.7118
   44TAL   C219 8425   5.540  11.756   2.481 -0.3407 -0.0874 -0.0358
   44TAL   C220 8426   5.683  11.808   2.496  0.0413 -0.1518 -0.3292
   45HTM   C221 8427   5.010  11.385   2.461  0.2723  0.4048 -0.1319
   45HTM   C222 8428   4.926  11.279   2.446  0.3562  0.3570 -0.2652
   45HTM   C223 8429   4.787  11.315   2.432  0.3362  0.2692 -0.2968
   45HTM   C224 8430   4.765  11.450   2.436  0.2367  0.2497 -0.1871
   45HTM    S23 8431   4.919  11.541   2.458  0.1602  0.3419 -0.0346
   46TAL   C225 8432   4.690  11.202   2.407 -0.0201 -0.7554  0.1627
   46TAL   C226 8433   4.657  11.163   2.265 -0.3510  0.1990 -0.0387
   46TAL   C227 8434   4.524  11.092   2.239 -0.6912  0.4065 -0.4571
   46TAL   C228 8435   4.401  11.172   2.257 -0.3530 -0.0907 -0.4306
   46TAL   C229 8436   4.304  11.206   2.142 -1.0662  0.4951 -0.7222
   46TAL   C230 8437   4.208  11.302   2.203 -0.7439 -0.6181 -0.0215
   47HTM   C231 8438   4.641  11.536   2.432  0.0800 -0.0724  0.3919
   47HTM   C232 8439   4.631  11.670   2.413  0.2034 -0.0210  0.6727
   47HTM   C233 8440   4.496  11.717   2.402  0.2589  0.0433  0.2215
   47HTM   C234 8441   4.402  11.619   2.414  0.1775  0.0408 -0.4031
   47HTM    S24 8442   4.479  11.457   2.440  0.0236 -0.0434 -0.4706
   48TAL   C235 8443   4.474  11.863   2.382  0.2411 -0.3695  0.5006
   48TAL   C236 8444   4.326  11.913   2.377  0.1824 -0.1170  0.0408
   48TAL   C237 8445   4.346  12.061   2.420  0.4587  0.1375 -0.1843
   48TAL   C238 8446   4.221  12.147   2.408 -0.3963  0.3210  0.0858
   48TAL   C239 8447   4.251  12.291   2.419  0.1997 -0.1280  0.6344
   48TAL   C240 8448   4.132  12.378   2.369 -0.2278 -0.1266 -1.1778
    1HTM     C1 8449   7.908   4.143   7.801 -0.3140 -0.1414 -0.1257
    1HTM     C2 8450   7.937   4.079   7.684 -0.6599 -0.0525 -0.2604
    1HTM     C3 8451   7.918   4.161   7.567 -0.6413  0.1576 -0.1168
    1HTM     C4 8452   7.874   4.287   7.595 -0.2811  0.2286  0.1273
    1HTM     S1 8453   7.854   4.313   7.772  0.0649  0.0341  0.1954
    2TAL     C5 8454   7.947   4.114   7.428  0.0822  0.0865 -0.2042
    2TAL     C6 8455   7.955   3.962   7.391  0.1527 -0.1306 -0.0158
    2TAL     C7 8456   7.955   3.933   7.246  0.0589  0.2157 -0.6430
    2TAL     C8 8457   7.914   3.783   7.233 -0.0104 -0.0897 -0.5419
    2TAL     C9 8458   7.870   3.752   7.090 -0.1012  0.4694  0.1640
    2TAL    C10 8459   7.804   3.612   7.085 -0.5813 -0.8126  0.3378
    3HTM    C11 8460   7.864   4.402   7.504  0.1542  0.1533  0.0689
    3HTM    C12 8461   7.773   4.438   7.408 -0.1724  0.2050  0.3941
    3HTM    C13 8462   7.811   4.555   7.333 -0.3951  0.2079  0.2840
    3HTM    C14 8463   7.931   4.608   7.372 -0.2387  0.1576 -0.1255
    3HTM     S2 8464   8.005   4.514   7.507  0.2055  0.1034 -0.4054
    4TAL    C15 8465   7.730   4.604   7.216  0.6337  0.5215  0.0047
    4TAL    C16 8466   7.673   4.503   7.117  0.0360  0.4733 -0.0133
    4TAL    C17 8467   7.767   4.419   7.032 -0.3523 -0.3133  1.0751
    4TAL    C18 8468   7.684   4.311   6.953  0.1966 -0.1979 -0.5124
    4TAL    C19 8469   7.763   4.266   6.832  0.2281  0.2082  0.4147
    4TAL    C20 8470   7.714   4.138   6.761  0.4146 -0.2985 -0.6082
    5HTM    C21 8471   8.017   4.720   7.326 -0.3921 -0.4771 -0.9755
    5HTM    C22 8472   8.153   4.715   7.323 -0.4005 -0.6976 -1.1184
    5HTM    C23 8473   8.214   4.837   7.276 -0.2327 -0.5467 -0.5200
    5HTM    C24 8474   8.124   4.934   7.243 -0.0961 -0.2115  0.0793
    5HTM     S3 8475   7.955   4.879   7.269 -0.1688 -0.0592 -0.0672
    6TAL    C25 8476   8.362   4.842   7.252 -0.1212  0.8412  0.6383
    6TAL    C26 8477   8.448   4.721   7.292 -0.2212  0.0527  0.2728
    6TAL    C27 8478   8.599   4.756   7.283 -0.0345  0.4235 -0.3487
    6TAL    C28 8479   8.692   4.646   7.332 -0.4794 -0.2824  0.3644
    6TAL    C29 8480   8.835   4.661   7.289  0.3070  0.0180  0.7199
    6TAL    C30 8481   8.923   4.553   7.332 -0.0258 -0.3045 -0.0485
    7HTM    C31 8482   8.152   5.075   7.222 -0.4204 -0.2289  0.1793
    7HTM    C32 8483   8.273   5.133   7.201 -0.1082 -0.6928  0.6711
    7HTM    C33 8484   8.267   5.277   7.190  0.4530 -0.6874  0.4084
    7HTM    C34 8485   8.141   5.328   7.202  0.5686 -0.2192 -0.2840
    7HTM     S4 8486   8.020   5.197   7.229 -0.0259  0.2547 -0.6609
    8TAL    C35 8487   8.400   5.349   7.175  0.9226  0.2330  0.1447
    8TAL    C36 8488   8.527   5.297   7.246 -0.3677  0.2021 -0.5001
    8TAL    C37 8489   8.659   5.378   7.236  0.4021  0.1630 -0.3050
    8TAL    C38 8490   8.673   5.523   7.296  0.3168 -0.3850  0.6200
    8TAL    C39 8491   8.578   5.630   7.250  0.7170  0.4369 -0.3225
    8TAL    C40 8492   8.573   5.662   7.101 -0.2566 -0.2521 -0.6475
    9HTM    C41 8493   8.096   5.464   7.198  0.0001 -0.1814 -0.1592
    9HTM    C42 8494   7.986   5.518   7.137 -0.0539 -0.2706 -0.1392
    9HTM    C43 8495   7.971   5.659   7.159 -0.0687 -0.2499 -0.2832
    9HTM    C44 8496   8.069   5.714   7.236 -0.0253 -0.1450 -0.4126
    9HTM     S5 8497   8.190   5.590   7.288  0.0375 -0.0632 -0.3626
   10TAL    C45 8498   7.859   5.741   7.103  0.0917 -0.2532  0.4248
   10TAL    C46 8499   7.734   5.715   7.182  0.5970  0.0743 -0.6779
   10TAL    C47 8500   7.603   5.777   7.136 -0.1997  0.4766 -0.0262
   10TAL    C48 8501   7.477   5.747   7.216  0.0088  0.6581  0.4088
   10TAL    C49 8502   7.351   5.830   7.200 -0.2440  0.7297 -0.3193
   10TAL    C50 8503   7.377   5.970   7.246 -0.0832  0.7400  0.3183
   11HTM    C51 8504   8.085   5.842   7.303  0.4526 -0.1835 -0.1682
   11HTM    C52 8505   8.116   5.858   7.434  0.7873 -0.3047 -0.2291
   11HTM    C53 8506   8.128   5.996   7.474  0.6914 -0.3355 -0.0906
   11HTM    C54 8507   8.107   6.085   7.373  0.2842 -0.2378  0.0758
   11HTM     S6 8508   8.070   6.000   7.218 -0.0127 -0.0987  0.0706
   12TAL    C55 8509   8.182   6.026   7.620  0.0339  0.7324 -0.3635
   12TAL    C56 8510   8.157   5.924   7.731  0.6398  0.4252 -0.4825
   12TAL    C57 8511   8.196   5.961   7.881 -0.3571  0.1192  0.0883
   12TAL    C58 8512   8.144   6.099   7.936 -0.3087  0.5274 -0.3643
   12TAL    C59 8513   8.166   6.100   8.087 -0.3894  0.9704  0.5790
   12TAL    C60 8514   8.150   6.238   8.134 -0.5446  0.2621  0.3710
   13HTM    C61 8515   8.107   6.229   7.379 -0.2222 -0.0327 -0.0099
   13HTM    C62 8516   8.211   6.313   7.348 -0.1016 -0.2306 -0.1404
   13HTM    C63 8517   8.191   6.449   7.391  0.0963 -0.1330 -0.3526
   13HTM    C64 8518   8.071   6.469   7.455  0.1260  0.1393 -0.3839
   13HTM     S7 8519   7.975   6.317   7.464 -0.0953  0.2946 -0.1462
   14TAL    C65 8520   8.310   6.543   7.364  0.1246  0.6048  0.1041
   14TAL    C66 8521   8.412   6.553   7.482  0.4313  0.4002  0.5056
   14TAL    C67 8522   8.518   6.665   7.470  0.1038  0.6726  0.1150
   14TAL    C68 8523   8.605   6.680   7.599  0.5143  0.5829  0.0117
   14TAL    C69 8524   8.721   6.774   7.606  0.7719 -0.5972 -0.5583
   14TAL    C70 8525   8.684   6.919   7.581  0.3114 -0.1967  0.2445
   15HTM    C71 8526   8.006   6.594   7.496  0.0094 -0.0598 -0.5933
   15HTM    C72 8527   7.870   6.602   7.509 -0.0107 -0.0801 -0.7849
   15HTM    C73 8528   7.822   6.736   7.533 -0.0336 -0.1402 -0.4938
   15HTM    C74 8529   7.921   6.829   7.539 -0.0314 -0.1656 -0.0796
   15HTM     S8 8530   8.084   6.755   7.514  0.0001 -0.1149 -0.0256
   16TAL    C75 8531   7.671   6.761   7.545 -0.0931 -0.4822 -0.1078
   16TAL    C76 8532   7.584   6.668   7.464  0.1557  0.0548 -0.3970
   16TAL    C77 8533   7.551   6.715   7.324  0.8131 -0.3764  0.0345
   16TAL    C78 8534   7.492   6.610   7.232 -0.6216  0.2582  0.1587
   16TAL    C79 8535   7.336   6.603   7.232  0.1190  0.4650 -0.7806
   16TAL    C80 8536   7.308   6.467   7.164 -0.4826 -0.3295 -0.1312
   17HTM    C81 8537   7.905   6.971   7.555  0.3288 -0.2346  0.4332
   17HTM    C82 8538   7.830   7.055   7.479  0.5791 -0.4735 -0.0832
   17HTM    C83 8539   7.848   7.195   7.510  0.5109 -0.3710 -0.4947
   17HTM    C84 8540   7.938   7.217   7.610  0.2085 -0.0537 -0.2919
   17HTM     S9 8541   8.007   7.063   7.673 -0.0148  0.1417  0.4405
   18TAL    C85 8542   7.769   7.295   7.429  0.1692 -0.3169  0.3965
   18TAL    C86 8543   7.786   7.445   7.429 -0.1126 -0.0962 -0.1446
   18TAL    C87 8544   7.704   7.515   7.529  0.0179  0.3694 -0.0300
   18TAL    C88 8545   7.757   7.656   7.542 -0.7699  0.9818  0.0245
   18TAL    C89 8546   7.667   7.759   7.608 -0.1518 -0.2515 -0.7267
   18TAL    C90 8547   7.753   7.875   7.654  0.2928 -0.0158  0.3250
   19HTM    C91 8548   7.979   7.339   7.678 -0.0083 -0.0267 -0.2397
   19HTM    C92 8549   7.912   7.402   7.778 -0.2248  0.0429 -0.4299
   19HTM    C93 8550   7.981   7.518   7.830 -0.3145  0.0491 -0.3257
   19HTM    C94 8551   8.101   7.541   7.770 -0.1661 -0.0151 -0.0559
   19HTM    S10 8552   8.136   7.420   7.642  0.0996 -0.0901  0.0882
   20TAL    C95 8553   7.911   7.601   7.934  0.7276  0.3919 -0.1545
   20TAL    C96 8554   7.763   7.622   7.928  0.4906 -0.0097  0.3778
   20TAL    C97 8555   7.708   7.712   8.038  0.0390 -0.4142  0.3123
   20TAL    C98 8556   7.777   7.836   8.096  0.2857 -0.5504  0.3816
   20TAL    C99 8557   7.824   7.939   7.992  0.2007 -0.2566 -0.1575
   20TAL   C100 8558   7.904   8.060   8.046 -0.2108 -0.0756  0.3046
   21HTM   C101 8559   8.205   7.641   7.796  0.3810 -0.1517  0.1545
   21HTM   C102 8560   8.309   7.674   7.713  0.5116 -0.2220  0.2906
   21HTM   C103 8561   8.396   7.776   7.766  0.4115 -0.1564  0.3281
   21HTM   C104 8562   8.358   7.821   7.889  0.2050 -0.0358  0.2202
   21HTM    S11 8563   8.209   7.738   7.948  0.1197  0.0045  0.0621
   22TAL   C105 8564   8.527   7.806   7.700  0.3709 -0.7300 -0.1519
   22TAL   C106 8565   8.514   7.857   7.562  0.5037  0.2386  0.2724
   22TAL   C107 8566   8.643   7.919   7.512  0.0146 -0.4827  0.5573
   22TAL   C108 8567   8.632   7.930   7.362  0.2061 -0.3947 -0.9908
   22TAL   C109 8568   8.744   8.010   7.297 -0.5767 -0.0874 -0.0575
   22TAL   C110 8569   8.730   8.018   7.144  0.4034  0.0823 -0.1362
   23HTM   C111 8570   8.404   7.929   7.978  0.3115  0.0413  0.3662
   23HTM   C112 8571   8.367   7.958   8.105  0.4287  0.1745  0.3700
   23HTM   C113 8572   8.422   8.081   8.156  0.4010  0.2737  0.1588
   23HTM   C114 8573   8.502   8.145   8.066  0.2638  0.2160 -0.0068
   23HTM    S12 8574   8.514   8.055   7.910  0.1565  0.0299  0.0921
   24TAL   C115 8575   8.404   8.122   8.295  0.4137 -0.9057  0.3634
   24TAL   C116 8576   8.255   8.129   8.341 -0.0415 -0.1913  0.3723
   24TAL   C117 8577   8.150   8.228   8.287  0.1251  0.0987  0.3398
   24TAL   C118 8578   8.195   8.376   8.272  0.7240 -0.2602  0.0679
   24TAL   C119 8579   8.097   8.488   8.254 -0.3444  0.3884  0.1599
   24TAL   C120 8580   8.139   8.619   8.188  0.3682 -0.0135  0.1231
   25HTM   C121 8581   8.582   8.268   8.067 -0.0683 -0.1446 -0.1192
   25HTM   C122 8582   8.569   8.380   8.142 -0.3514 -0.0339 -0.3309
   25HTM   C123 8583   8.665   8.483   8.110 -0.4783  0.0687 -0.3858
   25HTM   C124 8584   8.751   8.449   8.010 -0.2930  0.0368 -0.2162
   25HTM    S13 8585   8.717   8.283   7.948  0.0601 -0.1277  0.0273
   26TAL   C125 8586   8.668   8.611   8.186  0.7737  0.0199 -0.2199
   26TAL   C126 8587   8.792   8.639   8.270 -0.2496 -0.3563  0.1072
   26TAL   C127 8588   8.783   8.761   8.360  0.2807  0.0779 -0.3774
   26TAL   C128 8589   8.763   8.901   8.313 -0.2829  0.0848 -0.0561
   26TAL   C129 8590   8.754   9.005   8.421 -0.4836 -0.0779  0.1048
   26TAL   C130 8591   8.712   9.142   8.357  0.1287  0.2266  0.1392
   27HTM   C131 8592   8.865   8.525   7.956  0.2343 -0.3755 -0.2659
   27HTM   C132 8593   8.861   8.654   7.910  0.2785 -0.3209 -0.1214
   27HTM   C133 8594   8.991   8.713   7.892  0.2952 -0.2871  0.1061
   27HTM   C134 8595   9.094   8.631   7.924  0.2639 -0.3150  0.1349
   27HTM    S14 8596   9.035   8.470   7.980  0.2102 -0.3866 -0.1253
   28TAL   C135 8597   8.999   8.858   7.851  0.7220 -0.7303  0.1486
   28TAL   C136 8598   8.946   8.960   7.954 -0.0293 -0.5496  0.0362
   28TAL   C137 8599   9.007   9.096   7.943  0.5738  0.0903 -0.4376
   28TAL   C138 8600   8.941   9.194   8.038  0.2431  0.0484 -0.1473
   28TAL   C139 8601   8.942   9.340   7.992 -0.1259  0.0138  0.0045
   28TAL   C140 8602   8.890   9.443   8.094  0.1897  0.5182 -0.4994
   29HTM   C141 8603   9.235   8.656   7.916  0.0794  0.0822  0.2713
   29HTM   C142 8604   9.305   8.772   7.936  0.0651  0.1154  0.1311
   29HTM   C143 8605   9.447   8.753   7.941  0.0719  0.1507  0.0756
   29HTM   C144 8606   9.486   8.623   7.926  0.0914  0.1443  0.1727
   29HTM    S15 8607   9.345   8.514   7.903  0.1028  0.0937  0.3439
   30TAL   C145 8608   9.528   8.871   7.983 -0.9776 -0.1433  0.5968
   30TAL   C146 8609   9.475   9.012   7.964  0.1122 -0.2440 -0.3927
   30TAL   C147 8610   9.561   9.126   8.026  0.0846  0.6754 -0.4040
   30TAL   C148 8611   9.524   9.270   7.983  0.2935  0.0524 -0.2652
   30TAL   C149 8612   9.378   9.314   8.006  0.1270  0.0729 -0.0769
   30TAL   C150 8613   9.355   9.466   7.990  0.6362 -0.6445 -0.2639
   31HTM   C151 8614   9.610   8.555   7.922 -0.2746 -0.0903  0.0136
   31HTM   C152 8615   9.669   8.499   7.812 -0.5270  0.0815 -0.2122
   31HTM   C153 8616   9.790   8.427   7.842 -0.3612  0.1807 -0.6294
   31HTM   C154 8617   9.823   8.427   7.975  0.0176  0.0846 -0.7221
   31HTM    S16 8618   9.703   8.521   8.072  0.1958 -0.1407 -0.2858
   32TAL   C155 8619   9.869   8.351   7.739 -0.0375  0.0348 -0.1836
   32TAL   C156 8620   9.802   8.221   7.686 -0.4383  0.1098  0.4414
   32TAL   C157 8621   9.724   8.124   7.783  0.4266  0.2821 -0.2403
   32TAL   C158 8622   9.692   7.985   7.724 -0.1933 -0.0259 -0.3545
   32TAL   C159 8623   9.804   7.876   7.726  0.0753  0.0642 -0.0870
   32TAL   C160 8624   9.882   7.866   7.857  0.4683 -0.4560  0.2616
   33HTM   C161 8625   9.920   8.353   8.050 -0.5336  0.3430  0.4696
   33HTM   C162 8626  10.055   8.335   8.041 -0.5084  0.5269  0.4869
   33HTM   C163 8627  10.106   8.230   8.125 -0.4354  0.3171  0.1831
   33HTM   C164 8628  10.010   8.168   8.199 -0.4049 -0.0274 -0.0646
   33HTM    S17 8629   9.847   8.237   8.168 -0.4666 -0.1131  0.0666
   34TAL   C165 8630  10.245   8.181   8.106 -0.2559  0.0133 -0.0968
   34TAL   C166 8631  10.356   8.216   8.209 -0.2137 -0.0195 -0.1948
   34TAL   C167 8632  10.359   8.355   8.258  0.1082  0.0768  0.3880
   34TAL   C168 8633  10.404   8.470   8.171 -0.1325 -0.1411 -0.3580
   34TAL   C169 8634  10.366   8.610   8.221 -0.1397 -0.3100 -0.5885
   34TAL   C170 8635  10.422   8.715   8.124 -0.0751  0.2190  0.3938
   35HTM   C171 8636  10.013   8.049   8.276 -0.0458 -0.4129  0.0207
   35HTM   C172 8637  10.105   8.002   8.366  0.3307 -0.7253 -0.5217
   35HTM   C173 8638  10.060   7.886   8.439  0.4697 -0.7286 -0.4425
   35HTM   C174 8639   9.935   7.844   8.405  0.1990 -0.4184  0.1609
   35HTM    S18 8640   9.863   7.949   8.277 -0.2559 -0.0959  0.6794
   36TAL   C175 8641  10.153   7.821   8.543  0.0373  0.0225  0.1294
   36TAL   C176 8642  10.125   7.839   8.690  1.3309 -0.0139 -0.2540
   36TAL   C177 8643  10.239   7.832   8.785  0.0641  0.7862 -0.6168
   36TAL   C178 8644  10.359   7.927   8.780 -0.2493  0.3506 -0.5072
   36TAL   C179 8645  10.320   8.069   8.802  0.2544 -0.0209 -0.1673
   36TAL   C180 8646  10.443   8.147   8.832 -0.1548 -0.0038  0.4540
   37HTM   C181 8647   9.845   7.730   8.443 -0.1356 -0.1014  0.1390
   37HTM   C182 8648   9.870   7.626   8.528 -0.0364 -0.4737 -0.3481
   37HTM   C183 8649   9.757   7.539   8.548  0.0028 -0.5939 -0.6356
   37HTM   C184 8650   9.646   7.578   8.479 -0.0665 -0.3132 -0.3676
   37HTM    S19 8651   9.676   7.727   8.383 -0.1876  0.1281  0.2726
   38TAL   C185 8652   9.762   7.418   8.642 -0.0091  0.3667  0.5756
   38TAL   C186 8653   9.899   7.343   8.657 -0.6114 -0.1966  0.1415
   38TAL   C187 8654   9.984   7.395   8.774  0.1848  0.3982 -0.3152
   38TAL   C188 8655  10.129   7.357   8.769  0.2455  0.0702  0.6407
   38TAL   C189 8656  10.211   7.409   8.888  0.4548 -0.0531  0.4064
   38TAL   C190 8657  10.348   7.346   8.895 -0.8391  0.2710  0.2389
   39HTM   C191 8658   9.510   7.532   8.461  0.0753 -0.1120  0.0091
   39HTM   C192 8659   9.392   7.599   8.454  0.1608  0.0353 -0.0286
   39HTM   C193 8660   9.278   7.513   8.433  0.0278  0.1471  0.2251
   39HTM   C194 8661   9.309   7.381   8.423 -0.1591  0.0850  0.4557
   39HTM    S20 8662   9.487   7.354   8.441 -0.1819 -0.1214  0.3702
   40TAL   C195 8663   9.143   7.577   8.402  0.1979 -0.5394  0.7876
   40TAL   C196 8664   9.057   7.587   8.530  0.5269 -0.1650  0.2668
   40TAL   C197 8665   8.909   7.628   8.512 -0.2903 -0.0155 -0.2794
   40TAL   C198 8666   8.885   7.759   8.434 -0.3841 -0.8596 -0.1577
   40TAL   C199 8667   8.743   7.818   8.431 -0.3304 -0.2987 -0.7183
   40TAL   C200 8668   8.724   7.950   8.374 -0.5841 -0.0922  0.4195
   41HTM   C201 8669   9.235   7.260   8.397 -0.0310  0.0408  0.3433
   41HTM   C202 8670   9.100   7.254   8.377 -0.0798 -0.0873  0.7057
   41HTM   C203 8671   9.054   7.125   8.332 -0.0302 -0.0334  0.4964
   41HTM   C204 8672   9.153   7.033   8.318  0.0565  0.1356 -0.0259
   41HTM    S21 8673   9.314   7.102   8.360  0.0824  0.2408 -0.2956
   42TAL   C205 8674   8.905   7.099   8.295  0.4742 -0.3687  0.1283
   42TAL   C206 8675   8.798   7.209   8.319  0.0344  0.3866 -0.0285
   42TAL   C207 8676   8.793   7.318   8.201 -0.5409  0.6248 -0.3112
   42TAL   C208 8677   8.699   7.421   8.252  0.0903 -0.1505  0.8771
   42TAL   C209 8678   8.697   7.539   8.157  0.5202  0.1813  0.9534
   42TAL   C210 8679   8.584   7.640   8.193 -0.1398  0.4790  0.2622
   43HTM   C211 8680   9.151   6.903   8.256 -0.2290  0.0582  0.1938
   43HTM   C212 8681   9.078   6.790   8.278 -0.3348  0.0787 -0.0472
   43HTM   C213 8682   9.121   6.677   8.199 -0.3698  0.1755 -0.2069
   43HTM   C214 8683   9.227   6.704   8.118 -0.2907  0.2289 -0.0869
   43HTM    S22 8684   9.281   6.875   8.134 -0.1649  0.1604  0.2399
   44TAL   C215 8685   9.056   6.543   8.217  0.0183  0.1954 -0.3676
   44TAL   C216 8686   8.905   6.514   8.199  0.4283 -0.4349  0.3171
   44TAL   C217 8687   8.862   6.378   8.242 -0.0933  0.1324  0.0015
   44TAL   C218 8688   8.714   6.351   8.223 -0.1853  0.7063  0.3085
   44TAL   C219 8689   8.665   6.217   8.278 -0.1091  0.2979 -0.1096
   44TAL   C220 8690   8.525   6.189   8.248  0.5524 -0.2309  0.1651
   45HTM   C221 8691   9.298   6.622   8.023  0.2105 -0.1596  0.0724
   45HTM   C222 8692   9.303   6.487   8.010  0.3903 -0.1447 -0.0191
   45HTM   C223 8693   9.361   6.442   7.886  0.1390  0.0179 -0.1953
   45HTM   C224 8694   9.400   6.544   7.804 -0.2323  0.1270 -0.2381
   45HTM    S23 8695   9.367   6.705   7.878 -0.2940  0.0317 -0.0588
   46TAL   C225 8696   9.370   6.288   7.852  0.4583  0.4002 -0.8587
   46TAL   C226 8697   9.481   6.210   7.909  0.1162  0.5935 -0.5885
   46TAL   C227 8698   9.492   6.070   7.853  0.5507  0.2265 -0.0723
   46TAL   C228 8699   9.611   5.993   7.912 -0.7150  0.8827 -0.5777
   46TAL   C229 8700   9.601   5.957   8.062 -0.9829  0.4898 -0.1228
   46TAL   C230 8701   9.506   5.840   8.090  0.0971  0.1845  0.9839
   47HTM   C231 8702   9.469   6.548   7.678 -0.1280  0.1979 -0.0281
   47HTM   C232 8703   9.540   6.656   7.635  0.2372  0.0665  0.2420
   47HTM   C233 8704   9.586   6.645   7.499  0.5771  0.0629  0.3552
   47HTM   C234 8705   9.550   6.528   7.438  0.4711  0.1911  0.1715
   47HTM    S24 8706   9.454   6.423   7.549 -0.0706  0.3279 -0.1614
   48TAL   C235 8707   9.640   6.773   7.430 -0.4235 -0.5812  0.4508
   48TAL   C236 8708   9.718   6.764   7.296  0.2691  0.4365 -0.0430
   48TAL   C237 8709   9.620   6.731   7.182  0.2068  0.0182  0.2058
   48TAL   C238 8710   9.657   6.724   7.034  0.2630  0.2349  0.0911
   48TAL   C239 8711   9.777   6.633   6.986  0.0978 -0.2584  0.6932
   48TAL   C240 8712   9.915   6.668   7.034 -0.4639 -0.5437  1.0178
    1HTM     C1 8713   4.170   1.007   8.400  0.1096  0.3724  0.2318
    1HTM     C2 8714   4.187   0.872   8.399 -0.0076  0.3536  0.5484
    1HTM     C3 8715   4.071   0.799   8.356  0.0327  0.3705  0.4110
    1HTM     C4 8716   3.965   0.879   8.324  0.1802  0.4022 -0.0103
    1HTM     S1 8717   4.004   1.053   8.347  0.2804  0.4132 -0.2679
    2TAL     C5 8718   4.075   0.644   8.335  0.2084  0.5535  0.2894
    2TAL     C6 8719   4.207   0.568   8.342 -0.2915 -0.3155 -0.2856
    2TAL     C7 8720   4.260   0.556   8.487 -0.2404  0.1868  0.8421
    2TAL     C8 8721   4.396   0.480   8.484 -0.1052 -0.0335  0.2125
    2TAL     C9 8722   4.514   0.567   8.456  0.4311  0.4691  0.2726
    2TAL    C10 8723   4.649   0.510   8.424 -0.4339 -0.4679  0.1097
    3HTM    C11 8724   3.829   0.853   8.289  0.1058 -0.0862  0.7388
    3HTM    C12 8725   3.771   0.747   8.225 -0.0073 -0.1196  0.8965
    3HTM    C13 8726   3.628   0.758   8.215  0.0653  0.3535  0.2789
    3HTM    C14 8727   3.577   0.871   8.272  0.2335  0.7476 -0.3489
    3HTM     S2 8728   3.707   0.974   8.342  0.3142  0.5504 -0.2089
    4TAL    C15 8729   3.545   0.646   8.146  0.0857 -0.1381 -0.6023
    4TAL    C16 8730   3.614   0.525   8.086 -0.1818 -0.3920  0.4448
    4TAL    C17 8731   3.517   0.415   8.043 -0.1248 -0.4569 -0.3307
    4TAL    C18 8732   3.588   0.291   7.984  0.6456  0.1049 -0.1356
    4TAL    C19 8733   3.491   0.205   7.913 -0.1010  0.0491 -0.1923
    4TAL    C20 8734   3.546   0.082   7.851  0.2103  0.3668 -0.0028
    5HTM    C21 8735   3.439   0.919   8.278  0.5970  0.0290  0.4627
    5HTM    C22 8736   3.325   0.849   8.255  0.7681 -0.3273  0.6928
    5HTM    C23 8737   3.205   0.928   8.265  0.5583 -0.6375  0.6599
    5HTM    C24 8738   3.228   1.059   8.296  0.2272 -0.5176  0.4043
    5HTM     S3 8739   3.405   1.092   8.314  0.1541  0.0002  0.1832
    6TAL    C25 8740   3.067   0.870   8.236  0.4045  0.4982 -1.0744
    6TAL    C26 8741   3.030   0.733   8.290  0.2337  0.7909 -0.9150
    6TAL    C27 8742   2.891   0.681   8.267  0.1280  0.4401  0.4416
    6TAL    C28 8743   2.887   0.528   8.294  0.2308  0.3706  0.2057
    6TAL    C29 8744   2.940   0.433   8.188 -0.5517  0.5871  0.5760
    6TAL    C30 8745   2.865   0.439   8.057 -0.5784 -0.8149  0.0265
    7HTM    C31 8746   3.138   1.174   8.308 -0.1419 -0.0165  0.4407
    7HTM    C32 8747   3.008   1.168   8.351 -0.1636 -0.0497  0.3700
    7HTM    C33 8748   2.938   1.293   8.339 -0.2319 -0.1052  0.1960
    7HTM    C34 8749   3.013   1.394   8.287 -0.2622 -0.1142  0.1343
    7HTM     S4 8750   3.180   1.339   8.249 -0.2066 -0.0529  0.2915
    8TAL    C35 8751   2.796   1.301   8.387 -0.5730  0.1773 -0.0216
    8TAL    C36 8752   2.682   1.251   8.293 -0.0466 -1.0986  0.1672
    8TAL    C37 8753   2.662   1.101   8.265 -0.2320 -0.0936 -0.3593
    8TAL    C38 8754   2.617   1.002   8.367 -0.4730  0.3535 -0.4190
    8TAL    C39 8755   2.484   1.043   8.425 -0.5592 -0.5980 -0.0613
    8TAL    C40 8756   2.464   0.961   8.546 -0.5187  0.1086 -0.2546
    9HTM    C41 8757   2.974   1.531   8.256 -0.0035 -0.2804 -0.1477
    9HTM    C42 8758   2.868   1.602   8.304 -0.2838 -0.5349 -0.3858
    9HTM    C43 8759   2.867   1.740   8.266 -0.5006 -0.5227 -0.3419
    9HTM    C44 8760   2.973   1.776   8.187 -0.3857 -0.2591 -0.0705
    9HTM     S5 8761   3.082   1.635   8.156  0.0083 -0.0035  0.1533
   10TAL    C45 8762   2.769   1.842   8.323  0.2379 -0.3749  0.2451
   10TAL    C46 8763   2.629   1.789   8.315  0.1564 -0.1061  0.4524
   10TAL    C47 8764   2.514   1.893   8.316 -0.1245 -0.2400 -0.1974
   10TAL    C48 8765   2.521   2.028   8.391 -0.3273 -0.0372 -0.4881
   10TAL    C49 8766   2.610   2.143   8.324 -0.3639  0.2064 -0.3543
   10TAL    C50 8767   2.604   2.270   8.401  0.1073 -0.0903 -0.0867
   11HTM    C51 8768   3.004   1.909   8.135 -0.1200  0.0866  0.3097
   11HTM    C52 8769   2.921   1.980   8.054 -0.1323 -0.0375  0.2136
   11HTM    C53 8770   2.973   2.110   8.017 -0.1014 -0.1259 -0.0558
   11HTM    C54 8771   3.095   2.137   8.071 -0.0657 -0.0693 -0.1656
   11HTM     S6 8772   3.155   2.001   8.173 -0.0681  0.1014  0.0654
   12TAL    C55 8773   2.906   2.196   7.918  0.1359  0.8324 -0.1609
   12TAL    C56 8774   2.752   2.192   7.912 -0.1963  0.0051  0.0316
   12TAL    C57 8775   2.696   2.269   7.789  0.5392 -0.7198  0.2628
   12TAL    C58 8776   2.543   2.291   7.774 -0.7784 -0.3926 -0.4542
   12TAL    C59 8777   2.465   2.157   7.765  0.3202 -0.1839 -0.1441
   12TAL    C60 8778   2.317   2.167   7.715  0.5998  0.6577  0.0203
   13HTM    C61 8779   3.169   2.270   8.084  0.0403  0.6825 -0.5087
   13HTM    C62 8780   3.151   2.379   8.004  0.1595  0.9278 -0.2041
   13HTM    C63 8781   3.222   2.496   8.048  0.1795  0.7637  0.1993
   13HTM    C64 8782   3.294   2.477   8.163  0.0757  0.3934  0.2020
   13HTM     S7 8783   3.277   2.307   8.223 -0.0566  0.2219 -0.3077
   14TAL    C65 8784   3.222   2.625   7.979  0.3569 -0.4809  0.4837
   14TAL    C66 8785   3.089   2.697   7.924 -0.0949  0.5833 -0.5814
   14TAL    C67 8786   2.999   2.615   7.831  0.3405  0.4789  0.3844
   14TAL    C68 8787   2.876   2.690   7.797  0.2437  0.7243  0.0509
   14TAL    C69 8788   2.769   2.629   7.703  0.2723  0.6327  0.5326
   14TAL    C70 8789   2.650   2.719   7.704  0.2740 -0.3598 -0.5508
   15HTM    C71 8790   3.371   2.568   8.242 -0.4116  0.0394  0.0440
   15HTM    C72 8791   3.338   2.662   8.335 -0.3952  0.1051 -0.0167
   15HTM    C73 8792   3.451   2.737   8.384 -0.3537 -0.0308  0.0954
   15HTM    C74 8793   3.569   2.700   8.329 -0.3387 -0.2002  0.2407
   15HTM     S8 8794   3.548   2.566   8.209 -0.3759 -0.2010  0.2486
   16TAL    C75 8795   3.442   2.842   8.498  0.1779 -0.3447  0.0158
   16TAL    C76 8796   3.326   2.941   8.493 -0.1428 -0.5315  0.1907
   16TAL    C77 8797   3.318   3.029   8.362  0.2879  0.2661 -0.6144
   16TAL    C78 8798   3.190   3.107   8.335  0.1918 -0.9392 -0.4645
   16TAL    C79 8799   3.051   3.038   8.335 -0.0998  0.3976 -0.3639
   16TAL    C80 8800   3.033   2.920   8.237  0.2369 -0.2231 -0.1319
   17HTM    C81 8801   3.704   2.747   8.350  0.0808  0.1034  0.0858
   17HTM    C82 8802   3.800   2.688   8.426 -0.1073  0.1677  0.3772
   17HTM    C83 8803   3.920   2.767   8.440 -0.1124  0.1467  0.5455
   17HTM    C84 8804   3.914   2.887   8.375  0.0719  0.0666  0.3813
   17HTM     S9 8805   3.756   2.909   8.290  0.2676  0.0108 -0.0008
   18TAL    C85 8806   4.036   2.734   8.527  0.8393 -0.0574 -0.5771
   18TAL    C86 8807   4.021   2.631   8.640 -0.2301  0.6414  0.7825
   18TAL    C87 8808   4.153   2.585   8.700  0.5943 -0.0559  0.0217
   18TAL    C88 8809   4.239   2.506   8.599 -0.0832 -0.2064  0.1988
   18TAL    C89 8810   4.374   2.452   8.658  0.1946  0.8108 -0.0296
   18TAL    C90 8811   4.478   2.418   8.544 -0.2721  0.1206  0.1006
   19HTM    C91 8812   4.005   3.003   8.370  0.3432 -0.1937 -0.2908
   19HTM    C92 8813   4.140   3.015   8.387  0.2968  0.0229 -0.0725
   19HTM    C93 8814   4.186   3.152   8.388  0.0386  0.1074  0.2942
   19HTM    C94 8815   4.086   3.244   8.372 -0.1113 -0.0445  0.3557
   19HTM    S10 8816   3.925   3.164   8.354  0.0629 -0.3084 -0.0482
   20TAL    C95 8817   4.334   3.180   8.396 -0.2560  0.2836  0.5633
   20TAL    C96 8818   4.402   3.231   8.272 -0.1044 -0.0929 -0.6460
   20TAL    C97 8819   4.537   3.295   8.273 -0.1075  0.5602 -0.5013
   20TAL    C98 8820   4.646   3.205   8.335  0.1892  1.0627  0.4693
   20TAL    C99 8821   4.774   3.275   8.355  0.1597 -0.4028 -0.2106
   20TAL   C100 8822   4.884   3.186   8.410 -0.2019 -0.1641  0.5428
   21HTM   C101 8823   4.082   3.390   8.387 -0.2400 -0.2800  0.1095
   21HTM   C102 8824   3.966   3.462   8.378 -0.2687 -0.2495  0.7186
   21HTM   C103 8825   3.984   3.603   8.401 -0.1717 -0.3017  0.9770
   21HTM   C104 8826   4.113   3.639   8.426 -0.0697 -0.3723  0.5659
   21HTM    S11 8827   4.223   3.496   8.424 -0.0877 -0.3780 -0.1869
   22TAL   C105 8828   3.869   3.697   8.404 -0.3179 -0.3517  0.8808
   22TAL   C106 8829   3.753   3.677   8.509  0.1862  0.3637  0.7773
   22TAL   C107 8830   3.679   3.544   8.505  0.1515  0.0788  0.2675
   22TAL   C108 8831   3.619   3.494   8.373 -0.0862 -0.6103  0.7256
   22TAL   C109 8832   3.562   3.354   8.374  0.4201 -0.7196  0.8116
   22TAL   C110 8833   3.559   3.305   8.237  0.6682 -0.3231  0.1839
   23HTM   C111 8834   4.159   3.771   8.476  0.2729  0.1741 -0.0925
   23HTM   C112 8835   4.083   3.880   8.508  0.2222  0.2868 -0.5851
   23HTM   C113 8836   4.159   3.991   8.560  0.1225  0.3982 -0.6781
   23HTM   C114 8837   4.293   3.967   8.567  0.0971  0.3707 -0.2562
   23HTM    S12 8838   4.334   3.801   8.508  0.1981  0.2003  0.2948
   24TAL   C115 8839   4.089   4.120   8.590 -0.0993  0.2717 -1.1264
   24TAL   C116 8840   3.935   4.137   8.614 -0.7629  0.3563  0.3599
   24TAL   C117 8841   3.870   4.080   8.743 -0.3955  0.1214 -0.3634
   24TAL   C118 8842   3.924   4.126   8.880  0.2279 -0.1700  0.8990
   24TAL   C119 8843   3.911   4.278   8.906  0.0985 -0.1658 -0.0322
   24TAL   C120 8844   3.918   4.310   9.056 -0.1709  0.6544  0.4454
   25HTM   C121 8845   4.398   4.059   8.602  0.1487  0.0883  0.5157
   25HTM   C122 8846   4.383   4.194   8.609  0.3145  0.0913  0.7968
   25HTM   C123 8847   4.508   4.266   8.609  0.3896 -0.0386  0.4940
   25HTM   C124 8848   4.618   4.185   8.601  0.2813 -0.1410 -0.0180
   25HTM    S13 8849   4.572   4.011   8.594  0.0742 -0.0804 -0.1585
   26TAL   C125 8850   4.497   4.417   8.601  0.6946  0.0149  0.2597
   26TAL   C126 8851   4.612   4.505   8.644  0.2595 -0.3055  0.3749
   26TAL   C127 8852   4.600   4.650   8.605 -0.3062 -0.7646 -0.1891
   26TAL   C128 8853   4.713   4.737   8.655 -0.5060 -0.0606 -0.4874
   26TAL   C129 8854   4.679   4.886   8.676 -0.0279  0.0140 -1.0191
   26TAL   C130 8855   4.785   4.956   8.762 -0.6411 -0.3962 -0.3468
   27HTM   C131 8856   4.754   4.231   8.579  0.3035 -0.1370 -0.3096
   27HTM   C132 8857   4.854   4.268   8.664  0.3519  0.0410 -0.4439
   27HTM   C133 8858   4.974   4.313   8.598  0.2022  0.2034 -0.6056
   27HTM   C134 8859   4.965   4.309   8.462  0.0393  0.1499 -0.5942
   27HTM    S14 8860   4.805   4.249   8.407  0.0626 -0.1124 -0.3774
   28TAL   C135 8861   5.089   4.355   8.689  0.4614 -0.5127 -0.1131
   28TAL   C136 8862   5.087   4.494   8.760  0.2133 -0.8824 -0.1055
   28TAL   C137 8863   5.103   4.601   8.650  0.5410 -0.5483  0.8822
   28TAL   C138 8864   5.097   4.753   8.691 -0.2129  0.4680 -0.2782
   28TAL   C139 8865   5.119   4.845   8.570 -0.1424  0.1143  0.4478
   28TAL   C140 8866   5.128   4.993   8.601  0.1287 -0.5053  0.0952
   29HTM   C141 8867   5.065   4.346   8.364 -0.0583  0.1095  0.3488
   29HTM   C142 8868   5.035   4.343   8.231 -0.0150 -0.2010  0.3424
   29HTM   C143 8869   5.143   4.387   8.146 -0.0246 -0.2942  0.2828
   29HTM   C144 8870   5.255   4.422   8.214 -0.0748 -0.0548  0.2433
   29HTM    S15 8871   5.234   4.403   8.392 -0.1141  0.3102  0.2783
   30TAL   C145 8872   5.122   4.393   7.997  0.0622  0.3990  0.2720
   30TAL   C146 8873   5.053   4.278   7.927  0.3731 -0.0869  0.3684
   30TAL   C147 8874   5.084   4.129   7.937  0.0365  0.0184  0.0961
   30TAL   C148 8875   5.197   4.078   7.846  0.3022  0.4489 -0.2666
   30TAL   C149 8876   5.258   3.945   7.894  0.4436 -0.4044  0.3563
   30TAL   C150 8877   5.378   3.897   7.817  0.4260  0.0982  0.5563
   31HTM   C151 8878   5.385   4.463   8.168 -0.0688  0.1124  0.2588
   31HTM   C152 8879   5.454   4.578   8.187 -0.0386  0.0763  0.3695
   31HTM   C153 8880   5.592   4.571   8.147 -0.1152  0.1688  0.0911
   31HTM   C154 8881   5.628   4.450   8.096 -0.2033  0.2764 -0.2323
   31HTM    S16 8882   5.490   4.334   8.096 -0.1967  0.2686 -0.2097
   32TAL   C155 8883   5.682   4.695   8.160  0.5418  0.0919  0.2864
   32TAL   C156 8884   5.623   4.826   8.206 -1.1191  0.0903  0.0606
   32TAL   C157 8885   5.734   4.930   8.226  0.3572 -0.2004  0.0200
   32TAL   C158 8886   5.690   5.050   8.307 -0.0065  0.3248  0.0113
   32TAL   C159 8887   5.807   5.105   8.390  0.5348  0.2256 -0.1985
   32TAL   C160 8888   5.770   5.217   8.489 -0.1046 -0.2391 -0.3298
   33HTM   C161 8889   5.755   4.396   8.053 -0.3390 -0.1273 -0.6493
   33HTM   C162 8890   5.867   4.472   8.032 -0.4787  0.0687 -0.6924
   33HTM   C163 8891   5.979   4.396   7.981 -0.1664  0.1407 -0.1180
   33HTM   C164 8892   5.952   4.264   7.964  0.2115 -0.0001  0.3643
   33HTM    S17 8893   5.783   4.223   8.011  0.2020 -0.2366  0.1280
   34TAL   C165 8894   6.108   4.468   7.946  0.2830  0.0147 -0.1971
   34TAL   C166 8895   6.142   4.585   8.043 -0.0511  0.4095  0.6823
   34TAL   C167 8896   6.243   4.676   7.988  0.1287  0.3752  0.8238
   34TAL   C168 8897   6.225   4.827   8.029 -0.1777 -0.0108 -0.0424
   34TAL   C169 8898   6.087   4.897   8.033 -0.9975 -0.4495  0.4011
   34TAL   C170 8899   6.110   5.037   8.103  0.1179 -0.3306  0.9128
   35HTM   C171 8900   6.039   4.156   7.915 -0.1258 -0.3834 -0.3473
   35HTM   C172 8901   6.127   4.158   7.811 -0.2403 -0.3695 -0.4458
   35HTM   C173 8902   6.199   4.035   7.794 -0.3026 -0.3872 -0.5779
   35HTM   C174 8903   6.165   3.939   7.884 -0.2354 -0.4143 -0.5803
   35HTM    S18 8904   6.039   3.997   7.999 -0.0868 -0.4193 -0.4145
   36TAL   C175 8905   6.295   4.021   7.680 -0.1773  0.4678 -0.6377
   36TAL   C176 8906   6.248   4.038   7.533 -0.0845  0.5544 -0.1769
   36TAL   C177 8907   6.367   4.028   7.438 -0.1532  0.0792  0.5753
   36TAL   C178 8908   6.324   4.047   7.290 -0.2468  0.8028  0.1583
   36TAL   C179 8909   6.442   4.045   7.189 -0.0217  0.1555 -0.2873
   36TAL   C180 8910   6.405   4.056   7.045 -0.1191  0.5386 -0.3655
   37HTM   C181 8911   6.219   3.803   7.911  0.3517 -0.0401 -0.2318
   37HTM   C182 8912   6.158   3.711   7.991  0.3526  0.3884  0.2682
   37HTM   C183 8913   6.236   3.591   8.011  0.1917  0.3397  0.6070
   37HTM   C184 8914   6.356   3.592   7.946  0.0685 -0.1259  0.3653
   37HTM    S19 8915   6.380   3.745   7.854  0.1462 -0.5426 -0.3137
   38TAL   C185 8916   6.186   3.477   8.098  0.2443  0.1380  0.2164
   38TAL   C186 8917   6.043   3.421   8.065  0.0115  0.3062 -0.6340
   38TAL   C187 8918   5.989   3.309   8.159 -0.0000 -0.0691 -0.0885
   38TAL   C188 8919   5.851   3.251   8.117 -1.0883  0.0217 -0.0354
   38TAL   C189 8920   5.725   3.344   8.138  0.3797 -0.4053 -0.0885
   38TAL   C190 8921   5.589   3.278   8.096 -0.6890 -0.6740  0.8131
   39HTM   C191 8922   6.456   3.489   7.937  0.1177 -0.1150 -0.0922
   39HTM   C192 8923   6.573   3.511   7.872  0.2494 -0.1408  0.1330
   39HTM   C193 8924   6.669   3.405   7.887  0.2084 -0.1479  0.3431
   39HTM   C194 8925   6.625   3.302   7.965  0.0453 -0.1274  0.2783
   39HTM    S20 8926   6.457   3.331   8.025 -0.0699 -0.0974 -0.0561
   40TAL   C195 8927   6.807   3.411   7.816  0.1498 -0.5613  0.0155
   40TAL   C196 8928   6.811   3.358   7.672  0.1479  0.3513  0.0999
   40TAL   C197 8929   6.929   3.393   7.577 -0.4583  0.0687  0.1546
   40TAL   C198 8930   6.911   3.334   7.439  0.2764  0.4334  0.8483
   40TAL   C199 8931   7.020   3.352   7.334  0.5118  0.1448 -0.5458
   40TAL   C200 8932   6.990   3.262   7.218  0.3710  0.4716 -0.6541
   41HTM   C201 8933   6.680   3.173   8.002  0.1150  0.2413  0.6159
   41HTM   C202 8934   6.810   3.148   8.036  0.0348  0.1540  0.8602
   41HTM   C203 8935   6.839   3.008   8.055 -0.0105  0.1031  0.5622
   41HTM   C204 8936   6.731   2.926   8.036  0.0354  0.1518  0.0901
   41HTM    S21 8937   6.584   3.021   7.992  0.1403  0.2665 -0.0145
   42TAL   C205 8938   6.991   2.969   8.072 -0.0454  1.3882  0.4232
   42TAL   C206 8939   7.063   2.947   7.937 -0.2515  0.8791  0.5090
   42TAL   C207 8940   7.204   2.882   7.948  0.1717 -0.1425  0.1653
   42TAL   C208 8941   7.208   2.728   7.975 -0.4507  0.3309  0.1322
   42TAL   C209 8942   7.156   2.636   7.863 -0.4136 -0.3215  0.1106
   42TAL   C210 8943   7.257   2.596   7.752  0.0959 -0.7942  0.3897
   43HTM   C211 8944   6.738   2.789   8.004 -0.1929 -0.2620 -0.0282
   43HTM   C212 8945   6.691   2.730   7.890 -0.3438 -0.6154  0.2134
   43HTM   C213 8946   6.720   2.589   7.882 -0.1788 -0.6013  0.5207
   43HTM   C214 8947   6.787   2.541   7.990  0.0975 -0.2369  0.5134
   43HTM    S22 8948   6.821   2.670   8.111  0.1719  0.1191  0.1149
   44TAL   C215 8949   6.683   2.507   7.763  1.3283  0.0835 -0.0863
   44TAL   C216 8950   6.743   2.548   7.632 -0.0547  0.0973  0.4747
   44TAL   C217 8951   6.896   2.518   7.603 -0.4678 -0.2856 -0.4007
   44TAL   C218 8952   6.939   2.553   7.464  0.1441  0.6596  0.4787
   44TAL   C219 8953   7.084   2.527   7.431 -0.0574 -0.3339 -0.0984
   44TAL   C220 8954   7.152   2.389   7.449 -0.1086 -0.4532 -0.7090
   45HTM   C221 8955   6.833   2.409   8.029 -0.0350  0.1009 -0.2414
   45HTM   C222 8956   6.816   2.339   8.144 -0.4072  0.1234 -0.2837
   45HTM   C223 8957   6.883   2.211   8.145 -0.5903  0.0273 -0.1283
   45HTM   C224 8958   6.952   2.185   8.031 -0.3579 -0.0685  0.0328
   45HTM    S23 8959   6.938   2.320   7.912  0.1143 -0.0443  0.0003
   46TAL   C225 8960   6.876   2.113   8.265 -0.6666  0.2310 -0.5500
   46TAL   C226 8961   6.921   2.148   8.407  0.4153 -0.2774 -0.1242
   46TAL   C227 8962   7.072   2.181   8.426  0.5409  0.1963 -0.1820
   46TAL   C228 8963   7.168   2.064   8.386  0.8182 -0.4812 -0.4448
   46TAL   C229 8964   7.166   1.942   8.482 -0.2903  0.9096  0.1597
   46TAL   C230 8965   7.253   1.831   8.436  0.4405 -0.0181 -0.1117
   47HTM   C231 8966   7.031   2.073   7.988  0.4185 -0.0986  0.1811
   47HTM   C232 8967   7.114   2.074   7.880  0.1607 -0.2800 -0.0222
   47HTM   C233 8968   7.178   1.947   7.855 -0.2110 -0.4309 -0.2060
   47HTM   C234 8969   7.142   1.849   7.944 -0.2364 -0.3644 -0.1429
   47HTM    S24 8970   7.025   1.911   8.066  0.2107 -0.1042  0.1556
   48TAL   C235 8971   7.280   1.935   7.743  0.0458  0.0522 -0.1067
   48TAL   C236 8972   7.396   1.829   7.741  0.1155 -0.1114  0.1907
   48TAL   C237 8973   7.353   1.680   7.775 -0.2887 -0.4799  0.0423
   48TAL   C238 8974   7.482   1.602   7.777 -0.2635  0.0259  0.2705
   48TAL   C239 8975   7.472   1.454   7.811  0.2815  0.2116 -0.7741
   48TAL   C240 8976   7.613   1.404   7.842 -0.1326  0.5332 -0.1636
    1HTM     C1 8977   6.843   7.301   4.155  0.4635  0.2303  0.8106
    1HTM     C2 8978   6.976   7.333   4.160  0.4349  0.3638  0.7148
    1HTM     C3 8979   7.004   7.470   4.126  0.3278  0.2437  0.1309
    1HTM     C4 8980   6.893   7.543   4.095  0.2748  0.0177 -0.2183
    1HTM     S1 8981   6.743   7.443   4.107  0.3563 -0.0607  0.1666
    2TAL     C5 8982   7.148   7.533   4.128 -0.0533  0.1899  0.3447
    2TAL     C6 8983   7.259   7.434   4.170  0.1020  0.3462 -0.1114
    2TAL     C7 8984   7.404   7.471   4.173 -0.1519  0.3904 -0.0657
    2TAL     C8 8985   7.497   7.357   4.223  0.7108 -0.4115 -0.5881
    2TAL     C9 8986   7.636   7.418   4.223  0.3339  0.5639 -0.2925
    2TAL    C10 8987   7.718   7.336   4.327  1.1290  0.2146 -0.2865
    3HTM    C11 8988   6.872   7.686   4.068 -0.0926  0.0253  0.0218
    3HTM    C12 8989   6.751   7.749   4.072 -0.0880  0.0219  0.1762
    3HTM    C13 8990   6.755   7.887   4.030 -0.1721 -0.0196  0.0315
    3HTM    C14 8991   6.879   7.929   3.994 -0.2408 -0.0477 -0.2337
    3HTM     S2 8992   7.001   7.797   4.009 -0.2040 -0.0237 -0.3209
    4TAL    C15 8993   6.632   7.975   4.029  0.1079 -1.0286  0.4037
    4TAL    C16 8994   6.574   7.994   4.167  0.3701 -0.1711 -0.0372
    4TAL    C17 8995   6.440   8.069   4.176  0.2250 -0.5360  0.4555
    4TAL    C18 8996   6.418   8.136   4.314  0.3305  0.1289  0.1528
    4TAL    C19 8997   6.311   8.236   4.302  0.3633  0.2354  0.4720
    4TAL    C20 8998   6.291   8.298   4.447 -0.3311  0.4878 -0.1267
    5HTM    C21 8999   6.921   8.050   3.929 -0.0103 -0.0350  0.1101
    5HTM    C22 9000   7.042   8.110   3.948  0.1886 -0.3490 -0.1545
    5HTM    C23 9001   7.050   8.242   3.892  0.4823 -0.4530 -0.3599
    5HTM    C24 9002   6.936   8.283   3.830  0.5075 -0.2190 -0.2520
    5HTM     S3 9003   6.808   8.157   3.838  0.1593  0.1546  0.1203
    6TAL    C25 9004   7.173   8.327   3.923  0.1733  0.0495 -0.2766
    6TAL    C26 9005   7.298   8.280   3.996 -0.5077  0.4107  0.3678
    6TAL    C27 9006   7.405   8.388   4.006 -0.3195 -0.2657  0.1381
    6TAL    C28 9007   7.486   8.438   3.881  0.7147  0.2303 -0.5419
    6TAL    C29 9008   7.419   8.489   3.761 -0.5173  0.1734 -0.0064
    6TAL    C30 9009   7.331   8.601   3.780  0.3167 -0.0288  0.1381
    7HTM    C31 9010   6.892   8.403   3.761 -0.1215 -0.2175  0.2381
    7HTM    C32 9011   6.870   8.421   3.627 -0.1953 -0.3176  0.2367
    7HTM    C33 9012   6.838   8.557   3.592 -0.1135 -0.3233  0.1392
    7HTM    C34 9013   6.835   8.642   3.699  0.0228 -0.2277  0.0664
    7HTM     S4 9014   6.874   8.557   3.853  0.0586 -0.1228  0.1158
    8TAL    C35 9015   6.834   8.593   3.444 -0.2390  0.9594 -0.1401
    8TAL    C36 9016   6.961   8.632   3.375  0.0279  0.3230 -0.6655
    8TAL    C37 9017   7.045   8.744   3.435  0.1662  0.5982  0.3971
    8TAL    C38 9018   7.162   8.784   3.338  0.5619  0.5742 -0.1906
    8TAL    C39 9019   7.237   8.911   3.349  0.8696 -0.1351 -0.1386
    8TAL    C40 9020   7.167   9.027   3.272  0.2556 -0.3482 -0.1450
    9HTM    C41 9021   6.838   8.785   3.703 -0.0460  0.1742  0.3012
    9HTM    C42 9022   6.764   8.874   3.630  0.1762  0.1473  0.0385
    9HTM    C43 9023   6.804   9.011   3.648  0.2067  0.1416  0.0098
    9HTM    C44 9024   6.909   9.027   3.733  0.0080  0.1644  0.2508
    9HTM     S5 9025   6.966   8.869   3.799 -0.2352  0.1947  0.5348
   10TAL    C45 9026   6.735   9.119   3.569  0.4195 -0.1954 -0.8020
   10TAL    C46 9027   6.820   9.175   3.457  0.3371  0.2086 -0.1120
   10TAL    C47 9028   6.762   9.303   3.387 -0.2872 -0.1427  0.1807
   10TAL    C48 9029   6.831   9.353   3.256 -0.3760 -0.0295  0.7350
   10TAL    C49 9030   6.982   9.382   3.264 -0.8581  0.0233  0.0630
   10TAL    C50 9031   7.030   9.441   3.131  0.1552 -0.2991  0.0732
   11HTM    C51 9032   6.982   9.141   3.785 -0.0024 -0.5009 -0.1243
   11HTM    C52 9033   7.039   9.250   3.726 -0.1481 -0.4221 -0.1196
   11HTM    C53 9034   7.143   9.311   3.804 -0.3951 -0.1393 -0.0077
   11HTM    C54 9035   7.166   9.248   3.923 -0.4380 -0.0024  0.0728
   11HTM     S6 9036   7.056   9.107   3.946 -0.1675 -0.2218  0.0130
   12TAL    C55 9037   7.213   9.438   3.752 -0.5740  0.0154  0.1629
   12TAL    C56 9038   7.255   9.433   3.604 -0.8286 -0.0407 -0.0155
   12TAL    C57 9039   7.392   9.375   3.568 -0.0343  0.4403  0.0849
   12TAL    C58 9040   7.521   9.422   3.640  0.2692  0.2846  0.2092
   12TAL    C59 9041   7.562   9.566   3.620 -0.2803 -0.2971 -0.2820
   12TAL    C60 9042   7.673   9.615   3.714  0.8253  0.2613  0.6409
   13HTM    C61 9043   7.260   9.267   4.025 -0.1899  0.1265  0.1065
   13HTM    C62 9044   7.274   9.185   4.133 -0.1516 -0.4896 -0.3612
   13HTM    C63 9045   7.394   9.207   4.209 -0.0432 -1.0316 -0.3679
   13HTM    C64 9046   7.473   9.307   4.158  0.0014 -0.8287  0.0945
   13HTM     S7 9047   7.400   9.380   4.010 -0.0905  0.0696  0.5783
   14TAL    C65 9048   7.435   9.119   4.332  0.6303  0.2192 -0.2132
   14TAL    C66 9049   7.356   8.999   4.369  0.1685 -0.0309 -0.2545
   14TAL    C67 9050   7.382   8.925   4.499 -0.1307 -0.4045  0.0461
   14TAL    C68 9051   7.519   8.873   4.535 -0.6261  0.2610 -0.1272
   14TAL    C69 9052   7.528   8.788   4.658 -0.2272  0.5568 -0.0042
   14TAL    C70 9053   7.674   8.730   4.663  0.2884  0.3520 -0.0548
   15HTM    C71 9054   7.602   9.358   4.196 -0.5958  0.1236 -0.1702
   15HTM    C72 9055   7.690   9.309   4.288 -0.9158 -0.0125  0.0613
   15HTM    C73 9056   7.815   9.380   4.294 -0.8047 -0.2282  0.3664
   15HTM    C74 9057   7.822   9.484   4.205 -0.4002 -0.2565  0.3670
   15HTM     S8 9058   7.672   9.499   4.108 -0.1258 -0.0111 -0.0198
   16TAL    C75 9059   7.915   9.323   4.390 -0.2612 -0.1402 -0.3062
   16TAL    C76 9060   7.917   9.378   4.535  0.2775 -0.7196 -0.2817
   16TAL    C77 9061   8.019   9.304   4.633 -0.2969  0.3330 -0.3281
   16TAL    C78 9062   7.990   9.160   4.651 -0.0579  0.2423  0.1647
   16TAL    C79 9063   8.108   9.070   4.688  0.0260  0.0134  0.1581
   16TAL    C80 9064   8.071   8.928   4.659  0.1374 -0.1488  0.5419
   17HTM    C81 9065   7.911   9.596   4.191 -0.1022  0.1472 -0.0350
   17HTM    C82 9066   7.944   9.654   4.072 -0.4303  0.4484  0.0181
   17HTM    C83 9067   8.030   9.769   4.084 -0.4773  0.4769  0.0777
   17HTM    C84 9068   8.062   9.799   4.213 -0.1849  0.1973  0.0701
   17HTM     S9 9069   7.987   9.684   4.330  0.1760 -0.1261 -0.0137
   18TAL    C85 9070   8.071   9.853   3.965  0.5412  1.3644  0.0989
   18TAL    C86 9071   7.967   9.856   3.845  0.2672  0.3724  0.2854
   18TAL    C87 9072   8.009   9.937   3.726 -0.6066  0.4594  0.4424
   18TAL    C88 9073   7.888   9.947   3.641  0.1362 -0.1272  0.3787
   18TAL    C89 9074   7.892  10.055   3.528  0.4534 -0.2222 -0.0868
   18TAL    C90 9075   7.828  10.192   3.575 -0.4142  0.1061  0.2809
   19HTM    C91 9076   8.125   9.918   4.269 -0.4793 -0.0729  0.2182
   19HTM    C92 9077   8.222  10.002   4.223 -0.3872 -0.2847  0.0226
   19HTM    C93 9078   8.255  10.108   4.314 -0.0653 -0.2772 -0.1013
   19HTM    C94 9079   8.184  10.105   4.430  0.0868 -0.0597  0.0003
   19HTM    S10 9080   8.068   9.966   4.433 -0.1651  0.1543  0.2618
   20TAL    C95 9081   8.354  10.214   4.279 -0.7101 -0.2272  0.4648
   20TAL    C96 9082   8.328  10.286   4.147  0.3264 -0.0145 -0.1038
   20TAL    C97 9083   8.394  10.419   4.124 -0.3908 -0.1090  0.4084
   20TAL    C98 9084   8.381  10.494   3.992 -0.0266 -0.4978  0.3870
   20TAL    C99 9085   8.253  10.561   3.950 -0.0251  0.6133 -0.6942
   20TAL   C100 9086   8.265  10.626   3.814  0.1688  0.3010  0.2459
   21HTM   C101 9087   8.188  10.180   4.548 -0.1820  0.3875 -0.2493
   21HTM   C102 9088   8.082  10.190   4.633 -0.0849  0.4566 -0.1378
   21HTM   C103 9089   8.102  10.283   4.741  0.1264  0.3724 -0.1044
   21HTM   C104 9090   8.224  10.345   4.737  0.1915  0.2391 -0.1909
   21HTM    S11 9091   8.323  10.290   4.597 -0.0111  0.2093 -0.3217
   22TAL   C105 9092   7.986  10.316   4.836 -0.3910 -0.0416  0.3557
   22TAL   C106 9093   7.884  10.408   4.785  0.3687 -0.0086 -0.4365
   22TAL   C107 9094   7.768  10.349   4.703 -0.2271  0.1907  0.4125
   22TAL   C108 9095   7.657  10.441   4.658  0.0021 -0.2822 -0.2641
   22TAL   C109 9096   7.560  10.497   4.767 -0.0658 -0.0652 -0.5972
   22TAL   C110 9097   7.454  10.594   4.725  0.4876  0.3883  0.5955
   23HTM   C111 9098   8.289  10.429   4.831 -0.5929 -0.0147 -0.3938
   23HTM   C112 9099   8.420  10.427   4.869 -0.5813 -0.4913 -0.4530
   23HTM   C113 9100   8.454  10.530   4.964 -0.2389 -0.8208 -0.2146
   23HTM   C114 9101   8.349  10.610   4.998  0.0098 -0.5955  0.0253
   23HTM    S12 9102   8.198  10.562   4.912 -0.1694  0.0554 -0.0311
   24TAL   C115 9103   8.596  10.530   5.012 -0.4050 -0.2673 -0.0417
   24TAL   C116 9104   8.655  10.395   5.057  0.0016 -0.1762  1.2158
   24TAL   C117 9105   8.775  10.405   5.151  0.2536  0.2397 -0.4923
   24TAL   C118 9106   8.756  10.483   5.281  0.3026  0.7411  0.1605
   24TAL   C119 9107   8.891  10.498   5.349  0.3324 -0.3976  0.0060
   24TAL   C120 9108   8.962  10.376   5.403 -0.0166 -0.0352  0.2154
   25HTM   C121 9109   8.351  10.730   5.088 -0.0214 -0.4709 -0.1106
   25HTM   C122 9110   8.245  10.811   5.114 -0.1006 -0.4436 -0.5171
   25HTM   C123 9111   8.276  10.922   5.200 -0.2689 -0.1248 -0.8650
   25HTM   C124 9112   8.406  10.926   5.240 -0.3184  0.0911 -0.7237
   25HTM    S13 9113   8.500  10.788   5.171 -0.1532 -0.0931 -0.1357
   26TAL   C125 9114   8.172  11.020   5.256 -0.5971  0.5334 -0.5928
   26TAL   C126 9115   8.057  11.050   5.161 -0.3680 -0.2906 -0.4826
   26TAL   C127 9116   8.076  11.156   5.053  0.1503 -0.2556 -0.5785
   26TAL   C128 9117   7.954  11.207   4.991 -0.4368  0.6344 -0.0585
   26TAL   C129 9118   7.956  11.323   4.902 -0.0140 -0.2842  0.0181
   26TAL   C130 9119   7.845  11.323   4.793 -0.0507 -0.1191 -0.2527
   27HTM   C131 9120   8.488  11.036   5.299  0.2856 -0.4016 -0.3633
   27HTM   C132 9121   8.445  11.162   5.328  0.0038 -0.4947 -0.3746
   27HTM   C133 9122   8.551  11.257   5.345 -0.1974 -0.3164 -0.0980
   27HTM   C134 9123   8.676  11.203   5.329 -0.0699 -0.0876  0.1247
   27HTM    S14 9124   8.668  11.027   5.291  0.3181 -0.0791  0.0007
   28TAL   C135 9125   8.528  11.406   5.375 -0.5401 -0.2558  0.6199
   28TAL   C136 9126   8.379  11.452   5.382 -0.1965  0.4685 -0.3342
   28TAL   C137 9127   8.283  11.436   5.263  0.0968  0.5086 -0.4803
   28TAL   C138 9128   8.298  11.538   5.158  0.0457 -0.7462 -0.1662
   28TAL   C139 9129   8.202  11.530   5.050 -0.1464 -0.3195  0.3295
   28TAL   C140 9130   8.141  11.671   5.037  0.6353  0.2758 -0.3033
   29HTM   C141 9131   8.808  11.264   5.339 -0.0093  0.0340  0.0707
   29HTM   C142 9132   8.856  11.373   5.273  0.2303 -0.4777 -0.6216
   29HTM   C143 9133   8.989  11.411   5.313  0.3715 -0.6089 -0.9687
   29HTM   C144 9134   9.043  11.330   5.408  0.2389 -0.1972 -0.5416
   29HTM    S15 9135   8.929  11.199   5.456 -0.0776  0.3924  0.3397
   30TAL   C145 9136   9.073  11.528   5.257  0.9461  0.5048  1.0728
   30TAL   C146 9137   9.149  11.509   5.123 -0.3510 -0.0103  0.2566
   30TAL   C147 9138   9.083  11.440   5.007 -0.5748  0.2723 -0.1890
   30TAL   C148 9139   9.177  11.417   4.886 -0.3608 -0.0714 -0.3317
   30TAL   C149 9140   9.098  11.323   4.799 -0.1996 -0.1050  0.3551
   30TAL   C150 9141   9.195  11.295   4.682 -0.4403 -1.1046 -0.4403
   31HTM   C151 9142   9.168  11.336   5.473  0.2930 -0.4226  0.4108
   31HTM   C152 9143   9.285  11.270   5.448  0.1785 -0.9823  1.3106
   31HTM   C153 9144   9.395  11.317   5.529  0.0233 -0.7801  1.4069
   31HTM   C154 9145   9.362  11.418   5.614  0.0195 -0.0663  0.5805
   31HTM    S16 9146   9.187  11.462   5.600  0.2131  0.4095 -0.3908
   32TAL   C155 9147   9.533  11.253   5.512  0.5918 -0.4593  0.0496
   32TAL   C156 9148   9.541  11.092   5.527 -0.4409 -0.7281  0.6581
   32TAL   C157 9149   9.688  11.051   5.530 -0.8638 -0.0143 -0.4289
   32TAL   C158 9150   9.707  10.904   5.569  0.3006  0.0510 -0.5591
   32TAL   C159 9151   9.854  10.891   5.584 -0.4271 -0.3812 -0.1385
   32TAL   C160 9152   9.896  10.753   5.610  0.9347  0.3148  0.1871
   33HTM   C161 9153   9.435  11.502   5.705  0.0511 -0.1877  0.4002
   33HTM   C162 9154   9.379  11.577   5.804  0.5093  0.0510  0.4802
   33HTM   C163 9155   9.471  11.668   5.867  0.8338  0.1209 -0.0875
   33HTM   C164 9156   9.598  11.661   5.817  0.6230 -0.0646 -0.6002
   33HTM    S17 9157   9.610  11.539   5.684 -0.0065 -0.3440 -0.4042
   34TAL   C165 9158   9.428  11.765   5.968  0.0538 -0.6175  0.0819
   34TAL   C166 9159   9.276  11.757   6.016 -0.5237 -0.1288 -0.3261
   34TAL   C167 9160   9.237  11.855   6.120 -0.0263  0.0096 -0.3232
   34TAL   C168 9161   9.096  11.859   6.176  0.0303 -0.5110 -0.6230
   34TAL   C169 9162   8.982  11.880   6.079 -0.1908  0.2965  0.1565
   34TAL   C170 9163   8.849  11.896   6.147 -0.5162  0.2898  0.6125
   35HTM   C171 9164   9.718  11.744   5.843  0.3770 -0.0032 -0.1101
   35HTM   C172 9165   9.842  11.713   5.892  0.2536  0.1369  0.2911
   35HTM   C173 9166   9.923  11.829   5.920  0.0488  0.2279  0.5181
   35HTM   C174 9167   9.862  11.947   5.892  0.0160  0.1573  0.2897
   35HTM    S18 9168   9.695  11.922   5.828  0.2431 -0.0311 -0.2337
   36TAL   C175 9169  10.073  11.805   5.954  0.2538  0.1899  0.3988
   36TAL   C176 9170  10.124  11.662   5.987 -0.1013  0.1321 -0.8841
   36TAL   C177 9171  10.269  11.649   6.039  0.2488 -0.3851 -0.2871
   36TAL   C178 9172  10.330  11.512   6.070  0.1278  0.0625  0.0431
   36TAL   C179 9173  10.252  11.408   6.146  0.2579  0.0201 -0.1205
   36TAL   C180 9174  10.213  11.438   6.296  0.3879 -0.4348  0.4968
   37HTM   C181 9175   9.910  12.084   5.878 -0.0757 -0.0597  0.1472
   37HTM   C182 9176  10.038  12.129   5.897 -0.0828 -0.0569  0.1876
   37HTM   C183 9177  10.055  12.269   5.868 -0.0741 -0.0589  0.1829
   37HTM   C184 9178   9.940  12.330   5.827 -0.0606 -0.0630  0.1392
   37HTM    S19 9179   9.801  12.216   5.822 -0.0576 -0.0648  0.0999
   38TAL   C185 9180  10.195  12.333   5.877  0.4055  0.1358  0.2320
   38TAL   C186 9181  10.317  12.265   5.811 -0.4232 -0.4057  0.6138
   38TAL   C187 9182  10.452  12.339   5.817  0.2790  0.4938  0.4369
   38TAL   C188 9183  10.462  12.463   5.726  0.0558  0.0594 -0.1299
   38TAL   C189 9184  10.453  12.447   5.572 -0.3558 -0.1728  0.0751
   38TAL   C190 9185  10.577  12.393   5.508  0.2673  0.3078  0.4554
   39HTM   C191 9186   9.918  12.470   5.782 -0.3724  0.1767  0.3483
   39HTM   C192 9187   9.799  12.529   5.751 -0.3682  0.2381  0.4463
   39HTM   C193 9188   9.811  12.662   5.697 -0.3302  0.1513  0.2360
   39HTM   C194 9189   9.940  12.705   5.688 -0.3054  0.0238 -0.0221
   39HTM    S20 9190  10.057  12.580   5.746 -0.3284  0.0035 -0.0203
   40TAL   C195 9191   9.692  12.736   5.650  0.6265 -0.1004 -0.2242
   40TAL   C196 9192   9.567  12.655   5.619 -0.0270 -0.0164 -0.5294
   40TAL   C197 9193   9.435  12.723   5.572  0.4072 -0.4342 -0.4933
   40TAL   C198 9194   9.314  12.633   5.561 -0.7667  0.4393  0.2255
   40TAL   C199 9195   9.197  12.712   5.522  0.5239  0.6092 -0.2436
   40TAL   C200 9196   9.067  12.633   5.507 -0.9996 -0.0031 -0.7136
   41HTM   C201 9197  10.006  12.821   5.627 -0.1106  0.0529 -0.2368
   41HTM   C202 9198  10.141  12.842   5.619 -0.0874 -0.1450 -0.3712
   41HTM   C203 9199  10.177  12.956   5.538  0.0017 -0.2195 -0.4370
   41HTM   C204 9200  10.070  13.022   5.486  0.0465 -0.0783 -0.3531
   41HTM    S21 9201   9.914  12.944   5.533 -0.0210  0.1612 -0.1827
   42TAL   C205 9202  10.324  12.985   5.517  0.0105  0.3167  0.0153
   42TAL   C206 9203  10.425  12.871   5.502  1.0238  0.1512  0.2044
   42TAL   C207 9204  10.564  12.916   5.494 -0.7533 -0.6845 -0.0709
   42TAL   C208 9205  10.646  12.803   5.445 -0.0673 -0.2712  0.2190
   42TAL   C209 9206  10.791  12.823   5.429 -0.1420  1.1396 -0.0934
   42TAL   C210 9207  10.858  12.685   5.402  0.2705  0.3946  0.0167
   43HTM   C211 9208  10.070  13.139   5.396 -0.2918  0.5231  0.2552
   43HTM   C212 9209  10.001  13.141   5.278 -0.6378  0.6511  0.4592
   43HTM   C213 9210  10.044  13.244   5.187 -0.5241  0.3889  0.2160
   43HTM   C214 9211  10.147  13.320   5.235 -0.0914  0.0612 -0.1736
   43HTM    S22 9212  10.196  13.268   5.401  0.2084  0.0584 -0.2643
   44TAL   C215 9213   9.969  13.268   5.057  0.2784 -0.2321  0.7037
   44TAL   C216 9214   9.976  13.167   4.942  0.5343  0.4714 -0.2301
   44TAL   C217 9215  10.111  13.115   4.899  0.0494  0.1349  0.5736
   44TAL   C218 9216  10.208  13.221   4.855  0.6395  0.2886 -0.4881
   44TAL   C219 9217  10.338  13.185   4.796 -0.0577  0.3913 -0.2750
   44TAL   C220 9218  10.435  13.294   4.755 -0.7665  0.1466  0.5835
   45HTM   C221 9219  10.242  13.412   5.169 -0.3338  0.4017  0.5403
   45HTM   C222 9220  10.211  13.508   5.077 -0.4059  0.3760  0.5381
   45HTM   C223 9221  10.325  13.577   5.023 -0.4103 -0.0551 -0.0248
   45HTM   C224 9222  10.444  13.532   5.073 -0.3415 -0.3581 -0.4520
   45HTM    S23 9223  10.420  13.400   5.193 -0.2652 -0.1205 -0.1738
   46TAL   C225 9224  10.325  13.690   4.921 -0.1633  1.0453 -0.5354
   46TAL   C226 9225  10.217  13.791   4.931  0.2333 -0.0628  0.2147
   46TAL   C227 9226  10.240  13.911   5.026 -0.0355  0.4626  0.3466
   46TAL   C228 9227  10.118  14.001   5.038 -0.8556 -0.3673  0.0759
   46TAL   C229 9228  10.102  14.100   5.158  0.6346  0.0796  0.2337
   46TAL   C230 9229  10.210  14.197   5.195 -0.1624 -0.1420 -0.0645
   47HTM   C231 9230  10.582  13.560   5.047  0.0917  0.1069  0.4689
   47HTM   C232 9231  10.650  13.678   5.044  0.0433  0.1185 -0.6042
   47HTM   C233 9232  10.791  13.663   5.021 -0.1007  0.0424 -1.4532
   47HTM   C234 9233  10.831  13.533   5.006 -0.1623 -0.0274 -1.0274
   47HTM    S24 9234  10.692  13.419   5.020 -0.0421 -0.0022  0.4903
   48TAL   C235 9235  10.871  13.787   4.988  0.4168 -1.0980 -0.5334
   48TAL   C236 9236  11.019  13.779   4.986 -0.1763  0.3341  0.4147
   48TAL   C237 9237  11.074  13.921   4.993  0.4909 -0.1326 -0.2672
   48TAL   C238 9238  11.226  13.942   4.989 -0.1321 -0.1894  0.1098
   48TAL   C239 9239  11.279  14.056   5.083 -0.4871  0.0634 -0.4667
   48TAL   C240 9240  11.430  14.040   5.117  0.4222 -0.2915  0.3093
    1HTM     C1 9241   8.878   1.621   0.322  0.0203  0.6567  0.0967
    1HTM     C2 9242   8.833   1.533   0.228 -0.5145  0.8912  0.1244
    1HTM     C3 9243   8.936   1.487   0.138 -0.8564  0.4962 -0.0701
    1HTM     C4 9244   9.059   1.541   0.163 -0.5820 -0.0396 -0.2461
    1HTM     S1 9245   9.054   1.654   0.303  0.1353 -0.0871 -0.1793
    2TAL     C5 9246   8.912   1.394   0.018 -0.5092 -0.5213 -0.1781
    2TAL     C6 9247   8.833   1.449  -0.095 -0.5096  0.7238  0.6210
    2TAL     C7 9248   8.808   1.336  -0.197  0.2114 -0.0189  0.3847
    2TAL     C8 9249   8.742   1.384  -0.330  0.1191 -0.4827 -0.4003
    2TAL     C9 9250   8.801   1.509  -0.389  0.7390  0.2901  0.8063
    2TAL    C10 9251   8.748   1.545  -0.525  0.1586  0.2799  0.3503
    3HTM    C11 9252   9.187   1.522   0.100  0.0067 -0.3108 -0.1681
    3HTM    C12 9253   9.215   1.488  -0.029  0.0951 -1.1263  0.0644
    3HTM    C13 9254   9.356   1.474  -0.056  0.1125 -1.3399  0.2542
    3HTM    C14 9255   9.435   1.499   0.051  0.0374 -0.6873  0.1656
    3HTM     S2 9256   9.338   1.541   0.197 -0.0619  0.2550 -0.1661
    4TAL    C15 9257   9.415   1.429  -0.193 -0.2657  0.7141 -0.8384
    4TAL    C16 9258   9.336   1.348  -0.287  0.6273  0.0273  0.0964
    4TAL    C17 9259   9.414   1.331  -0.425 -0.3645 -0.1618  0.0765
    4TAL    C18 9260   9.373   1.202  -0.501 -0.4016 -0.1861 -0.0887
    4TAL    C19 9261   9.231   1.188  -0.549  0.5274  0.1399 -0.3742
    4TAL    C20 9262   9.223   1.075  -0.653  0.1841  0.2437  0.3311
    5HTM    C21 9263   9.579   1.491   0.072 -0.0860  0.3848  0.1265
    5HTM    C22 9264   9.679   1.472  -0.018  0.0511  0.9433  0.1621
    5HTM    C23 9265   9.810   1.458   0.042  0.0394  1.1402  0.2367
    5HTM    C24 9266   9.808   1.465   0.178 -0.1066  0.7320  0.2580
    5HTM     S3 9267   9.642   1.491   0.241 -0.2418  0.0619  0.1849
    6TAL    C25 9268   9.936   1.425  -0.039 -0.4207 -1.0587 -0.0246
    6TAL    C26 9269   9.934   1.420  -0.193  0.4686 -0.5852  0.1824
    6TAL    C27 9270  10.078   1.418  -0.241  0.3968  0.4142  0.5016
    6TAL    C28 9271  10.101   1.382  -0.389 -0.3208 -0.2521 -0.5244
    6TAL    C29 9272  10.254   1.373  -0.419  0.1527  0.4528  0.1896
    6TAL    C30 9273  10.284   1.312  -0.555 -0.0212  0.3527  0.0217
    7HTM    C31 9274   9.916   1.467   0.278 -0.1215  0.0602 -0.2321
    7HTM    C32 9275   9.976   1.576   0.333  0.0597  0.1001 -0.5076
    7HTM    C33 9276  10.077   1.545   0.430  0.0372  0.1766 -0.4592
    7HTM    C34 9277  10.094   1.411   0.449 -0.1612  0.1951 -0.1468
    7HTM     S4 9278   9.984   1.314   0.345 -0.3362  0.1165  0.1125
    8TAL    C35 9279  10.142   1.672   0.495 -0.3797 -0.1109  0.4649
    8TAL    C36 9280  10.271   1.660   0.572  0.6398  0.3119 -0.1619
    8TAL    C37 9281  10.404   1.609   0.516 -0.3770  0.0854 -0.1819
    8TAL    C38 9282  10.497   1.547   0.619  0.1209 -0.4781  0.4990
    8TAL    C39 9283  10.590   1.445   0.561  0.5141  0.2247  0.6833
    8TAL    C40 9284  10.703   1.394   0.649 -0.0209  0.2837  0.7385
    9HTM    C41 9285  10.184   1.332   0.530 -0.3798 -0.2324  0.0596
    9HTM    C42 9286  10.185   1.335   0.666 -0.0088  0.0176  0.0519
    9HTM    C43 9287  10.262   1.229   0.725  0.5723  0.4230  0.0294
    9HTM    C44 9288  10.320   1.145   0.634  0.6442  0.4822  0.0200
    9HTM     S5 9289  10.280   1.194   0.465 -0.0216  0.0271  0.0390
   10TAL    C45 9290  10.275   1.206   0.877 -0.0353 -0.5133  0.1552
   10TAL    C46 9291  10.374   1.287   0.964  0.4804  0.0077  0.0815
   10TAL    C47 9292  10.389   1.222   1.105  1.5908 -0.3643  0.0030
   10TAL    C48 9293  10.477   1.298   1.202 -0.1786  0.6047 -0.1678
   10TAL    C49 9294  10.502   1.238   1.340 -0.5371 -0.0605  0.2564
   10TAL    C50 9295  10.624   1.300   1.402 -0.3442  0.1434 -0.1895
   11HTM    C51 9296  10.416   1.041   0.656 -0.0942  0.0849  0.0609
   11HTM    C52 9297  10.544   1.039   0.609  0.0198  0.2162  0.3677
   11HTM    C53 9298  10.613   0.915   0.633  0.1014  0.2984  0.5617
   11HTM    C54 9299  10.538   0.822   0.698  0.0494  0.2296  0.4028
   11HTM     S6 9300  10.372   0.884   0.734 -0.1077  0.0545 -0.0073
   12TAL    C55 9301  10.757   0.906   0.590 -0.3319  0.1589  0.2772
   12TAL    C56 9302  10.849   1.020   0.638  0.4836 -0.0624 -0.5955
   12TAL    C57 9303  10.985   1.010   0.585 -0.5817 -0.3011  0.0821
   12TAL    C58 9304  11.083   1.098   0.658 -0.5684 -0.1486 -0.2310
   12TAL    C59 9305  11.087   1.082   0.811  0.0590 -0.9293  0.4626
   12TAL    C60 9306  11.191   1.183   0.875 -0.1141 -0.1419  0.8659
   13HTM    C61 9307  10.567   0.684   0.744 -0.1900  0.3170  0.1815
   13HTM    C62 9308  10.477   0.603   0.806 -0.2583  0.1606 -0.1162
   13HTM    C63 9309  10.531   0.475   0.846 -0.3058  0.0552 -0.3843
   13HTM    C64 9310  10.663   0.460   0.814 -0.2736  0.1312 -0.2911
   13HTM     S7 9311  10.729   0.605   0.730 -0.1801  0.3434  0.1460
   14TAL    C65 9312  10.440   0.366   0.901  0.0367  0.4515  0.0965
   14TAL    C66 9313  10.294   0.396   0.939  0.6209 -0.0489 -0.0195
   14TAL    C67 9314  10.207   0.274   0.970  0.3811 -0.7721 -0.4856
   14TAL    C68 9315  10.249   0.220   1.109  1.0074  0.1073 -0.1137
   14TAL    C69 9316  10.177   0.101   1.162 -0.0660 -0.1879  0.6590
   14TAL    C70 9317  10.240   0.037   1.283  0.5901  0.0506 -0.1747
   15HTM    C71 9318  10.757   0.352   0.846  0.0865 -0.1735 -0.9854
   15HTM    C72 9319  10.726   0.224   0.882 -0.1451 -0.0897 -0.8854
   15HTM    C73 9320  10.840   0.147   0.924 -0.3866 -0.0366 -0.1142
   15HTM    C74 9321  10.958   0.215   0.919 -0.3392 -0.0799  0.3738
   15HTM     S8 9322  10.934   0.384   0.861  0.0170 -0.1920 -0.1064
   16TAL    C75 9323  10.820   0.002   0.975  0.2449  0.0332 -0.0878
   16TAL    C76 9324  10.736  -0.005   1.099 -0.4406  0.0291  0.0253
   16TAL    C77 9325  10.722  -0.150   1.133 -1.2717  0.1361 -0.4423
   16TAL    C78 9326  10.629  -0.171   1.251  0.1429 -0.3299  0.4740
   16TAL    C79 9327  10.604  -0.319   1.294 -0.0533  0.6367  0.2788
   16TAL    C80 9328  10.511  -0.329   1.417  0.0810  0.4883  0.3948
   17HTM    C81 9329  11.097   0.184   0.950  0.1295 -0.1743  0.1610
   17HTM    C82 9330  11.145   0.062   0.986  0.0675 -0.3409 -0.3170
   17HTM    C83 9331  11.289   0.053   0.982  0.0533 -0.4550 -0.5374
   17HTM    C84 9332  11.350   0.168   0.942  0.1047 -0.3754 -0.2274
   17HTM     S9 9333  11.230   0.298   0.908  0.1752 -0.1483  0.3715
   18TAL    C85 9334  11.361  -0.073   1.024 -0.6571 -0.3408  0.5781
   18TAL    C86 9335  11.314  -0.216   0.992  0.2143 -0.2888 -1.2068
   18TAL    C87 9336  11.387  -0.301   1.100  0.0359 -0.2028 -0.3251
   18TAL    C88 9337  11.378  -0.456   1.077 -0.6145 -0.0776 -0.6069
   18TAL    C89 9338  11.441  -0.533   1.192  0.5484  0.3249 -0.7672
   18TAL    C90 9339  11.442  -0.680   1.159 -0.8353  0.3874  0.0627
   19HTM    C91 9340  11.490   0.203   0.920 -0.1575  0.1070  0.3517
   19HTM    C92 9341  11.602   0.124   0.920 -0.2936 -0.0874  0.4117
   19HTM    C93 9342  11.722   0.195   0.885 -0.1602 -0.3096  0.4201
   19HTM    C94 9343  11.702   0.327   0.858  0.0775 -0.2846  0.3666
   19HTM    S10 9344  11.528   0.373   0.874  0.1518  0.0240  0.3010
   20TAL    C95 9345  11.854   0.123   0.868  0.8785  0.0163  0.4862
   20TAL    C96 9346  11.909   0.095   1.010 -0.3776  0.5427 -0.3880
   20TAL    C97 9347  12.040   0.017   1.022 -0.3935 -0.0270 -0.3551
   20TAL    C98 9348  12.163   0.069   0.951  0.7045  0.2954 -0.8965
   20TAL    C99 9349  12.279  -0.007   1.009 -0.3254  0.1343  0.0775
   20TAL   C100 9350  12.408   0.057   0.944 -0.8479 -0.1078 -0.1024
   21HTM   C101 9351  11.786   0.433   0.795  0.3723  0.0295 -0.0794
   21HTM   C102 9352  11.897   0.500   0.836  0.6137 -0.1497 -0.4303
   21HTM   C103 9353  11.938   0.605   0.747  0.6089 -0.3347 -0.6518
   21HTM   C104 9354  11.858   0.618   0.637  0.3638 -0.2965 -0.4696
   21HTM    S11 9355  11.724   0.498   0.638  0.1180 -0.0219 -0.0006
   22TAL   C105 9356  12.059   0.695   0.779 -0.3218 -0.1889 -0.0334
   22TAL   C106 9357  12.197   0.660   0.714  0.2234 -0.4206  0.7449
   22TAL   C107 9358  12.274   0.542   0.761 -0.2829 -0.3077  0.2370
   22TAL   C108 9359  12.407   0.515   0.692  0.2639  0.2012  0.1543
   22TAL   C109 9360  12.481   0.391   0.730  0.9251 -0.0230  0.0479
   22TAL   C110 9361  12.607   0.409   0.653 -0.7388  0.7969  0.0249
   23HTM   C111 9362  11.857   0.706   0.525 -0.4972 -0.1464  0.0473
   23HTM   C112 9363  11.908   0.832   0.516 -0.5534 -0.1240  0.0466
   23HTM   C113 9364  11.868   0.902   0.397 -0.3736 -0.2363 -0.0799
   23HTM   C114 9365  11.787   0.829   0.315 -0.1807 -0.3443 -0.1757
   23HTM    S12 9366  11.754   0.665   0.383 -0.2110 -0.3123 -0.1130
   24TAL   C115 9367  11.936   1.037   0.368  0.2893 -0.2432 -0.2051
   24TAL   C116 9368  12.069   1.066   0.429 -0.1619  0.1440  0.3234
   24TAL   C117 9369  12.181   0.969   0.391 -0.1270  0.4684 -0.2821
   24TAL   C118 9370  12.293   0.978   0.491 -0.3255 -0.1188  0.5532
   24TAL   C119 9371  12.390   0.869   0.469 -0.3306 -0.0050  0.5187
   24TAL   C120 9372  12.510   0.898   0.559  0.0498 -0.1995  0.4763
   25HTM   C121 9373  11.695   0.870   0.207 -0.2027  0.3264 -0.1180
   25HTM   C122 9374  11.641   0.990   0.170 -0.4241  0.2905  0.0853
   25HTM   C123 9375  11.546   0.980   0.063 -0.4648  0.2866  0.1217
   25HTM   C124 9376  11.526   0.853   0.018 -0.2743  0.3195 -0.0539
   25HTM    S13 9377  11.628   0.734   0.108 -0.0270  0.3583 -0.2805
   26TAL   C125 9378  11.479   1.108   0.015 -0.0733 -0.1072  0.0830
   26TAL   C126 9379  11.463   1.235   0.097 -0.5409 -0.0506  0.6187
   26TAL   C127 9380  11.364   1.238   0.219  0.0206  0.2781 -0.9507
   26TAL   C128 9381  11.217   1.209   0.202  0.5432  0.2771 -0.0043
   26TAL   C129 9382  11.167   1.063   0.244 -0.0313 -0.5099  0.5001
   26TAL   C130 9383  11.016   1.062   0.222 -0.0942 -0.0155 -0.2930
   27HTM   C131 9384  11.429   0.796  -0.077  0.1783 -0.0386 -0.1666
   27HTM   C132 9385  11.445   0.682  -0.151  0.3107  0.0785 -0.3209
   27HTM   C133 9386  11.330   0.649  -0.231  0.3064 -0.0104 -0.2775
   27HTM   C134 9387  11.227   0.737  -0.218  0.1706 -0.1952 -0.0905
   27HTM    S14 9388  11.267   0.870  -0.104  0.0366 -0.2721  0.0470
   28TAL   C135 9389  11.334   0.528  -0.322  0.0570 -0.8272  0.4184
   28TAL   C136 9390  11.363   0.400  -0.254  0.1613 -0.5423 -0.0620
   28TAL   C137 9391  11.307   0.282  -0.327 -0.2979  0.4337 -0.3069
   28TAL   C138 9392  11.345   0.155  -0.250  0.2153  0.6045 -0.6330
   28TAL   C139 9393  11.304   0.039  -0.339  0.1871 -0.2885 -0.3714
   28TAL   C140 9394  11.352  -0.103  -0.301  0.4345  0.0551 -0.4227
   29HTM   C141 9395  11.091   0.741  -0.287 -0.3737  0.5302 -0.0763
   29HTM   C142 9396  11.044   0.664  -0.390 -0.4451  0.3306  0.1035
   29HTM   C143 9397  10.904   0.682  -0.416 -0.5373  0.0298  0.3839
   29HTM   C144 9398  10.844   0.772  -0.333 -0.5361 -0.0000  0.4175
   29HTM    S15 9399  10.960   0.842  -0.215 -0.4174  0.3522  0.0956
   30TAL   C145 9400  10.840   0.638  -0.547 -0.2801  0.3538  0.3951
   30TAL   C146 9401  10.760   0.507  -0.532 -0.2683 -0.0836 -0.4231
   30TAL   C147 9402  10.705   0.453  -0.665 -0.4290 -0.0311  0.2815
   30TAL   C148 9403  10.584   0.536  -0.718 -0.1560  0.6709 -0.4231
   30TAL   C149 9404  10.527   0.475  -0.846 -0.0465 -0.2866 -0.3349
   30TAL   C150 9405  10.405   0.550  -0.885  0.0321 -0.1525 -0.3134
   31HTM   C151 9406  10.714   0.823  -0.334 -0.0443 -0.6420  0.0246
   31HTM   C152 9407  10.682   0.954  -0.318  0.3019 -0.5654  0.1006
   31HTM   C153 9408  10.541   0.981  -0.329  0.3976 -0.1497 -0.1359
   31HTM   C154 9409  10.466   0.870  -0.354  0.1243  0.0907 -0.3916
   31HTM    S16 9410  10.568   0.722  -0.365 -0.2782 -0.1914 -0.3536
   32TAL   C155 9411  10.494   1.118  -0.307  0.4257 -0.2912  0.0920
   32TAL   C156 9412  10.582   1.222  -0.240  0.2357  0.2279 -0.3610
   32TAL   C157 9413  10.609   1.204  -0.094 -0.0096 -0.2842 -0.2372
   32TAL   C158 9414  10.662   1.332  -0.026  0.0619  0.4907 -0.1299
   32TAL   C159 9415  10.716   1.312   0.116  0.0388 -0.0103 -0.2626
   32TAL   C160 9416  10.765   1.450   0.152  0.4344  0.4386 -0.2251
   33HTM   C161 9417  10.325   0.847  -0.375 -0.1642 -0.5148 -0.1987
   33HTM   C162 9418  10.248   0.737  -0.350 -0.5220 -0.3117 -0.3934
   33HTM   C163 9419  10.113   0.748  -0.399 -0.4454  0.1538 -0.5040
   33HTM   C164 9420  10.086   0.867  -0.461 -0.0292  0.3056 -0.3948
   33HTM    S17 9421  10.231   0.974  -0.462  0.3009 -0.1310 -0.1400
   34TAL   C165 9422  10.015   0.637  -0.361 -0.0493 -0.8503 -0.2825
   34TAL   C166 9423  10.058   0.487  -0.383 -0.6335 -0.5409  0.2657
   34TAL   C167 9424  10.080   0.451  -0.522 -0.5453 -0.4123  0.6829
   34TAL   C168 9425   9.966   0.455  -0.625 -0.0908 -0.0048 -0.3927
   34TAL   C169 9426   9.828   0.395  -0.582  0.8051  0.0040 -0.1957
   34TAL   C170 9427   9.719   0.401  -0.694 -0.2292  0.1614  0.3537
   35HTM   C171 9428   9.966   0.917  -0.525  0.4575  0.2689  0.2442
   35HTM   C172 9429   9.894   0.854  -0.621  0.6372  0.0229  0.2708
   35HTM   C173 9430   9.800   0.939  -0.689  0.3968 -0.2716  0.2327
   35HTM   C174 9431   9.800   1.067  -0.643  0.0339 -0.2503  0.1765
   35HTM    S18 9432   9.920   1.091  -0.511 -0.0329  0.1466  0.1675
   36TAL   C175 9433   9.700   0.879  -0.790 -0.0489 -0.3394  0.2696
   36TAL   C176 9434   9.749   0.843  -0.936  0.0387 -0.2361  0.3441
   36TAL   C177 9435   9.836   0.951  -1.002 -0.3805 -0.1809  0.8292
   36TAL   C178 9436   9.879   0.909  -1.143 -0.5540  0.6881 -0.0018
   36TAL   C179 9437   9.923   1.024  -1.230  0.0736  0.0291  0.0927
   36TAL   C180 9438   9.974   0.992  -1.366  0.3133  0.4770 -0.1536
   37HTM   C181 9439   9.736   1.190  -0.688 -0.6779 -0.0945  0.5599
   37HTM   C182 9440   9.643   1.218  -0.784 -0.7968  0.0424  0.7133
   37HTM   C183 9441   9.606   1.357  -0.790 -0.3336  0.1609  0.5326
   37HTM   C184 9442   9.670   1.435  -0.700  0.1385  0.1144  0.2424
   37HTM    S19 9443   9.784   1.339  -0.598  0.0338 -0.0842  0.1734
   38TAL   C185 9444   9.515   1.394  -0.902 -0.9900  0.0209 -0.6687
   38TAL   C186 9445   9.365   1.387  -0.881  0.7835  0.0811  0.2120
   38TAL   C187 9446   9.271   1.426  -0.998  0.6178 -0.4672 -0.3871
   38TAL   C188 9447   9.280   1.333  -1.119  0.0848 -0.0522 -0.5882
   38TAL   C189 9448   9.172   1.346  -1.221  0.5450  0.9992  0.2802
   38TAL   C190 9449   9.183   1.264  -1.351  0.3479  0.4288 -0.1709
   39HTM   C191 9450   9.656   1.577  -0.664  0.0324 -0.0972  0.1817
   39HTM   C192 9451   9.706   1.626  -0.547  0.3232 -0.1262  0.0710
   39HTM   C193 9452   9.683   1.767  -0.529  0.6494 -0.0663  0.0167
   39HTM   C194 9453   9.616   1.825  -0.633  0.6072  0.0084  0.0857
   39HTM    S20 9454   9.576   1.706  -0.762  0.1487  0.0088  0.2258
   40TAL   C195 9455   9.747   1.836  -0.408 -0.2645  0.1443  0.3156
   40TAL   C196 9456   9.680   1.835  -0.268 -0.0073 -0.8830  0.0808
   40TAL   C197 9457   9.759   1.917  -0.166 -0.3601  0.7508  0.3434
   40TAL   C198 9458   9.902   1.869  -0.130  0.5581  0.3141  0.0157
   40TAL   C199 9459   9.964   1.897   0.009  0.1674  0.0561 -0.2614
   40TAL   C200 9460  10.079   1.806   0.030 -0.0782  0.0054  0.2950
   41HTM   C201 9461   9.551   1.956  -0.650 -0.2244 -0.1898 -0.3466
   41HTM   C202 9462   9.463   1.976  -0.753 -0.0175  0.1857 -0.4539
   41HTM   C203 9463   9.426   2.114  -0.772  0.3639  0.3088 -0.3071
   41HTM   C204 9464   9.486   2.199  -0.684  0.4478  0.0271 -0.0869
   41HTM    S21 9465   9.594   2.112  -0.569  0.0485 -0.4188 -0.0498
   42TAL   C205 9466   9.340   2.164  -0.885 -0.1592 -0.0144 -0.5853
   42TAL   C206 9467   9.300   2.081  -1.009 -0.2151 -0.0796 -0.1746
   42TAL   C207 9468   9.407   2.014  -1.090 -0.5310  0.1599  0.0472
   42TAL   C208 9469   9.363   1.927  -1.207 -0.1985  0.1882 -0.1976
   42TAL   C209 9470   9.278   1.807  -1.179  0.1076 -0.1123  0.7418
   42TAL   C210 9471   9.221   1.738  -1.298  0.0998  0.4520 -0.1169
   43HTM   C211 9472   9.469   2.343  -0.659 -0.3314 -0.4025  0.6466
   43HTM   C212 9473   9.565   2.429  -0.613 -0.4596 -0.3511  0.8178
   43HTM   C213 9474   9.529   2.568  -0.625 -0.3840 -0.3604  0.4649
   43HTM   C214 9475   9.406   2.588  -0.680 -0.1982 -0.4188  0.0258
   43HTM    S22 9476   9.325   2.432  -0.722 -0.1036 -0.4670  0.0230
   44TAL   C215 9477   9.619   2.685  -0.576  0.7210  0.1774 -0.8060
   44TAL   C216 9478   9.751   2.645  -0.511  0.3591 -0.4401 -0.2645
   44TAL   C217 9479   9.865   2.615  -0.606 -0.7612  0.3257  0.0690
   44TAL   C218 9480   9.989   2.594  -0.529 -0.9166 -0.0100 -0.1460
   44TAL   C219 9481  10.045   2.723  -0.470 -0.7580 -0.1612  0.2547
   44TAL   C220 9482  10.157   2.692  -0.370  0.1645 -0.6343 -0.1841
   45HTM   C221 9483   9.328   2.714  -0.703 -0.2089 -0.0436 -0.1886
   45HTM   C222 9484   9.362   2.845  -0.695 -0.1083 -0.0551 -0.4287
   45HTM   C223 9485   9.254   2.936  -0.724 -0.1297 -0.0228 -0.2465
   45HTM   C224 9486   9.137   2.873  -0.754 -0.2467  0.0132  0.1334
   45HTM    S23 9487   9.154   2.693  -0.748 -0.3395  0.0094  0.2905
   46TAL   C225 9488   9.259   3.088  -0.707  0.0555 -0.4597  0.4642
   46TAL   C226 9489   9.392   3.155  -0.755  0.1750 -0.8380  0.3892
   46TAL   C227 9490   9.411   3.143  -0.907 -0.0479  0.6028  0.1736
   46TAL   C228 9491   9.552   3.187  -0.965 -0.2489  0.0211 -0.0695
   46TAL   C229 9492   9.589   3.333  -0.938  0.2114 -0.0140 -0.3343
   46TAL   C230 9493   9.538   3.443  -1.024 -0.3537  1.0144 -0.4036
   47HTM   C231 9494   9.005   2.918  -0.798  0.6106  0.2841 -0.1447
   47HTM   C232 9495   8.935   3.023  -0.747  0.8631  0.5020 -0.2408
   47HTM   C233 9496   8.803   3.036  -0.802  0.7629  0.5527  0.0110
   47HTM   C234 9497   8.772   2.941  -0.895  0.4342  0.3736  0.2986
   47HTM    S24 9498   8.909   2.827  -0.921  0.2234  0.1249  0.2748
   48TAL   C235 9499   8.701   3.142  -0.766 -0.4042 -0.1355  0.1430
   48TAL   C236 9500   8.736   3.249  -0.662 -0.5995 -0.5671  0.2734
   48TAL   C237 9501   8.619   3.341  -0.614 -0.7210  0.4654  0.5459
   48TAL   C238 9502   8.654   3.438  -0.496 -0.0209  0.0320  0.4697
   48TAL   C239 9503   8.532   3.483  -0.410  0.0658  0.7640  0.3024
   48TAL   C240 9504   8.554   3.588  -0.306  0.6563 -0.1572  0.0896
    1HTM     C1 9505   0.151   7.862   1.661 -0.1698 -0.2473 -0.3363
    1HTM     C2 9506   0.068   7.775   1.596  0.1030 -0.2835 -0.6365
    1HTM     C3 9507   0.008   7.831   1.477  0.3394 -0.2394 -0.7371
    1HTM     C4 9508   0.044   7.960   1.452  0.2468 -0.1696 -0.5136
    1HTM     S1 9509   0.158   8.022   1.577 -0.1492 -0.1544 -0.1560
    2TAL     C5 9510  -0.085   7.744   1.391 -0.2194 -0.1077 -0.1252
    2TAL     C6 9511  -0.127   7.599   1.428 -0.0282 -0.0396 -0.0106
    2TAL     C7 9512  -0.021   7.487   1.436  0.2577  0.2487 -0.1644
    2TAL     C8 9513  -0.088   7.353   1.425  0.3468 -0.1347  0.2647
    2TAL     C9 9514  -0.007   7.232   1.451  0.1462  0.2301  0.0191
    2TAL    C10 9515  -0.081   7.126   1.524  0.2101  0.2063  0.1062
    3HTM    C11 9516   0.014   8.049   1.343  0.0003  0.2456 -0.1722
    3HTM    C12 9517  -0.103   8.077   1.279 -0.0935  0.2308 -0.0098
    3HTM    C13 9518  -0.090   8.178   1.177 -0.2179  0.1278 -0.1270
    3HTM    C14 9519   0.036   8.227   1.163 -0.2193  0.0649 -0.3788
    3HTM     S2 9520   0.150   8.149   1.280 -0.0620  0.1302 -0.4883
    4TAL    C15 9521  -0.203   8.202   1.082  0.0022  0.7960  0.5709
    4TAL    C16 9522  -0.322   8.277   1.140  0.1953 -0.4646  0.1639
    4TAL    C17 9523  -0.426   8.293   1.033 -0.1016 -0.6933  0.2890
    4TAL    C18 9524  -0.554   8.378   1.059 -0.3274  0.2959  0.8263
    4TAL    C19 9525  -0.538   8.526   1.098 -0.2238 -0.0899 -0.0010
    4TAL    C20 9526  -0.675   8.593   1.077 -0.0737 -0.3932  0.3406
    5HTM    C21 9527   0.082   8.343   1.093 -0.2293 -0.3373 -0.0969
    5HTM    C22 9528   0.012   8.453   1.053 -0.2799 -0.3009  0.0885
    5HTM    C23 9529   0.095   8.559   1.002 -0.3352 -0.2084  0.1906
    5HTM    C24 9530   0.228   8.530   1.003 -0.3266 -0.1741  0.0830
    5HTM     S3 9531   0.260   8.366   1.070 -0.2476 -0.2565 -0.1575
    6TAL    C25 9532   0.035   8.694   0.961 -0.3854  0.1200 -0.2593
    6TAL    C26 9533  -0.110   8.743   0.986 -0.0472  0.2368  0.1194
    6TAL    C27 9534  -0.192   8.683   0.880  0.0981  0.3670 -0.2972
    6TAL    C28 9535  -0.335   8.747   0.876  0.1015 -0.1239  0.4389
    6TAL    C29 9536  -0.351   8.894   0.833  0.0597 -0.1814  0.0827
    6TAL    C30 9537  -0.498   8.927   0.830 -0.6098  0.5595  0.3247
    7HTM    C31 9538   0.342   8.608   0.951 -0.1135 -0.1346  0.2865
    7HTM    C32 9539   0.398   8.584   0.829 -0.0003 -0.4706  0.4039
    7HTM    C33 9540   0.516   8.662   0.803  0.0814 -0.6156  0.3364
    7HTM    C34 9541   0.550   8.746   0.905  0.0304 -0.3898  0.1675
    7HTM     S4 9542   0.435   8.733   1.043 -0.1259  0.0273  0.0800
    8TAL    C35 9543   0.599   8.648   0.674 -0.1048 -0.3092 -0.9097
    8TAL    C36 9544   0.580   8.519   0.597  0.5056  0.5434  0.2702
    8TAL    C37 9545   0.681   8.495   0.496  0.0624 -0.2603 -0.2913
    8TAL    C38 9546   0.663   8.355   0.429  0.5728  0.5617  0.1921
    8TAL    C39 9547   0.771   8.299   0.340 -0.1459 -0.0662  0.3644
    8TAL    C40 9548   0.907   8.273   0.394  0.3145  0.7606  1.2489
    9HTM    C41 9549   0.661   8.839   0.911 -0.0353  0.0779 -0.2386
    9HTM    C42 9550   0.785   8.797   0.951 -0.0292 -0.2074 -0.5544
    9HTM    C43 9551   0.892   8.878   0.900  0.0239 -0.4053 -0.7592
    9HTM    C44 9552   0.850   8.982   0.821  0.0584 -0.2707 -0.5994
    9HTM     S5 9553   0.671   8.985   0.806  0.0262  0.1195 -0.1748
   10TAL    C45 9554   1.032   8.848   0.951  0.8317  0.1335  0.2698
   10TAL    C46 9555   1.079   8.707   0.935  0.3016 -0.2320 -0.4654
   10TAL    C47 9556   1.224   8.692   0.980  0.7405 -0.1579 -0.0253
   10TAL    C48 9557   1.267   8.542   0.975  0.1131 -0.0564  0.1766
   10TAL    C49 9558   1.224   8.436   1.084 -0.0614 -0.9871  0.5304
   10TAL    C50 9559   1.293   8.307   1.051 -0.7721  0.4459 -0.9644
   11HTM    C51 9560   0.922   9.088   0.753  0.1227  0.0290 -0.0465
   11HTM    C52 9561   0.872   9.211   0.720  0.0875  0.0226 -0.0163
   11HTM    C53 9562   0.961   9.291   0.640  0.0258  0.0304 -0.0778
   11HTM    C54 9563   1.080   9.229   0.612  0.0141  0.0427 -0.1549
   11HTM     S6 9564   1.088   9.064   0.685  0.0805  0.0455 -0.1559
   12TAL    C55 9565   0.921   9.425   0.596 -0.5975  0.1768 -0.3392
   12TAL    C56 9566   0.921   9.536   0.706  0.2157  0.3363  0.0624
   12TAL    C57 9567   0.901   9.676   0.639 -0.3154 -0.5937 -0.1176
   12TAL    C58 9568   0.998   9.721   0.524  0.0747 -0.1977 -0.2403
   12TAL    C59 9569   0.953   9.852   0.454  0.3788  0.3292  0.2287
   12TAL    C60 9570   1.052   9.908   0.354  0.0949 -0.2319 -0.0548
   13HTM    C61 9571   1.196   9.265   0.537  0.1666 -0.2722 -0.4389
   13HTM    C62 9572   1.212   9.369   0.451  0.3843 -0.1100 -0.2046
   13HTM    C63 9573   1.349   9.390   0.410  0.4902 -0.0256  0.1850
   13HTM    C64 9574   1.437   9.302   0.465  0.3531 -0.1235  0.2477
   13HTM     S7 9575   1.354   9.184   0.574  0.0776 -0.3315 -0.1837
   14TAL    C65 9576   1.381   9.505   0.306  0.5455  0.7584  0.1561
   14TAL    C66 9577   1.395   9.639   0.379  0.0200  0.3196  0.1281
   14TAL    C67 9578   1.424   9.753   0.288 -0.4318  0.2536  0.2687
   14TAL    C68 9579   1.572   9.769   0.260  0.3475 -0.2732 -0.2065
   14TAL    C69 9580   1.594   9.847   0.135 -0.1257  0.8110  0.5581
   14TAL    C70 9581   1.732   9.827   0.080  0.6225  0.4177  0.1275
   15HTM    C71 9582   1.582   9.292   0.461 -0.4038  0.3309  0.1586
   15HTM    C72 9583   1.671   9.381   0.410 -0.4062  0.7385  0.8470
   15HTM    C73 9584   1.809   9.344   0.431 -0.4042  0.8220  0.9789
   15HTM    C74 9585   1.824   9.227   0.499 -0.4004  0.4781  0.3912
   15HTM     S8 9586   1.665   9.153   0.542 -0.3988  0.0185 -0.3805
   16TAL    C75 9587   1.910   9.435   0.374  0.0502 -0.3690  0.5714
   16TAL    C76 9588   1.974   9.528   0.475  0.5349  0.1942 -0.4285
   16TAL    C77 9589   2.028   9.662   0.420  0.2159  0.5700  0.1892
   16TAL    C78 9590   2.140   9.648   0.315  0.4733 -0.1443 -0.1416
   16TAL    C79 9591   2.281   9.648   0.376 -0.2163  0.0339 -0.3267
   16TAL    C80 9592   2.343   9.779   0.425 -0.4187 -0.3833  0.0211
   17HTM    C81 9593   1.936   9.144   0.542 -0.0414 -0.4174  0.0150
   17HTM    C82 9594   1.935   9.020   0.600 -0.0462 -0.3837  0.0863
   17HTM    C83 9595   2.066   8.968   0.627 -0.0472 -0.4088  0.0418
   17HTM    C84 9596   2.167   9.051   0.589 -0.0430 -0.4617 -0.0636
   17HTM     S9 9597   2.104   9.203   0.516 -0.0375 -0.4840 -0.1150
   18TAL    C85 9598   2.088   8.832   0.693  0.1979 -0.1498  0.2179
   18TAL    C86 9599   1.953   8.773   0.747  0.3170 -0.2297 -0.0908
   18TAL    C87 9600   1.953   8.626   0.799  0.4095 -0.6377  0.3963
   18TAL    C88 9601   2.006   8.613   0.938  0.0583  1.0662  0.4716
   18TAL    C89 9602   2.006   8.476   0.998  0.0039  0.7384  0.2949
   18TAL    C90 9603   1.884   8.423   1.073 -0.2443 -0.2358 -0.6368
   19HTM    C91 9604   2.310   9.029   0.584  0.0288 -0.2310  0.0080
   19HTM    C92 9605   2.388   8.934   0.643  0.0263 -0.3729 -0.2166
   19HTM    C93 9606   2.526   8.937   0.602 -0.0064 -0.3796 -0.3268
   19HTM    C94 9607   2.553   9.035   0.511 -0.0292 -0.2430 -0.1862
   19HTM    S10 9608   2.406   9.131   0.471 -0.0108 -0.0938  0.0985
   20TAL    C95 9609   2.640   8.866   0.677 -0.0324 -0.4620  0.5521
   20TAL    C96 9610   2.610   8.777   0.798  0.1101  0.4976 -0.8359
   20TAL    C97 9611   2.736   8.729   0.881  0.1287 -0.2844 -0.2895
   20TAL    C98 9612   2.710   8.612   0.982  0.4861  0.3180  0.0341
   20TAL    C99 9613   2.840   8.554   1.036 -0.3650 -0.3205  0.1187
   20TAL   C100 9614   2.847   8.409   1.058  0.6350 -0.1678 -0.0695
   21HTM   C101 9615   2.676   9.060   0.439  0.0616 -0.2233  0.0119
   21HTM   C102 9616   2.732   9.180   0.406 -0.1287 -0.1138  0.0806
   21HTM   C103 9617   2.843   9.168   0.315 -0.2795  0.1364 -0.1376
   21HTM   C104 9618   2.872   9.040   0.279 -0.2043  0.2177 -0.3727
   21HTM    S11 9619   2.759   8.923   0.358  0.0650 -0.0170 -0.3364
   22TAL   C105 9620   2.908   9.302   0.273 -0.2877  0.2752  0.8325
   22TAL   C106 9621   2.985   9.370   0.387 -0.6219 -0.5623  0.4881
   22TAL   C107 9622   3.126   9.323   0.412 -0.3288 -0.2358  0.0764
   22TAL   C108 9623   3.229   9.360   0.304  0.2401  0.3052 -0.1427
   22TAL   C109 9624   3.373   9.329   0.343  0.0964 -0.6430 -0.4420
   22TAL   C110 9625   3.470   9.380   0.239 -0.5151 -0.7983 -0.4213
   23HTM   C111 9626   2.977   8.983   0.201  0.4219  0.1034  0.3795
   23HTM   C112 9627   3.099   9.028   0.160  0.5686 -0.0892  0.6010
   23HTM   C113 9628   3.176   8.930   0.087  0.4069 -0.1035  0.4488
   23HTM   C114 9629   3.112   8.810   0.072  0.1366  0.0793  0.1112
   23HTM    S12 9630   2.949   8.812   0.150  0.0651  0.2842 -0.0419
   24TAL   C115 9631   3.298   8.973   0.005  0.4394  0.5181  0.0748
   24TAL   C116 9632   3.428   9.018   0.075 -0.2049  0.5213  0.1686
   24TAL   C117 9633   3.483   8.920   0.182  0.2214  0.2576 -0.3528
   24TAL   C118 9634   3.612   8.944   0.249  0.4356  0.1031 -0.4838
   24TAL   C119 9635   3.712   8.906   0.145  0.0359  0.5654  0.0445
   24TAL   C120 9636   3.849   8.941   0.194 -0.4785 -0.4681 -0.2485
   25HTM   C121 9637   3.149   8.675   0.022  0.1339 -0.2731 -0.0380
   25HTM   C122 9638   3.269   8.612   0.032  0.0401 -0.4129  0.1912
   25HTM   C123 9639   3.265   8.473  -0.005 -0.0800 -0.4430  0.3161
   25HTM   C124 9640   3.141   8.430  -0.044 -0.0777 -0.3258  0.1811
   25HTM    S13 9641   3.020   8.563  -0.037  0.0775 -0.1670 -0.1161
   26TAL   C125 9642   3.399   8.399  -0.001  0.2365 -0.1559  0.0455
   26TAL   C126 9643   3.506   8.449  -0.103  0.2433 -0.4754  0.1946
   26TAL   C127 9644   3.461   8.445  -0.250  0.6503 -0.1666  0.4743
   26TAL   C128 9645   3.447   8.303  -0.309  0.1929 -0.1501  0.9193
   26TAL   C129 9646   3.381   8.297  -0.445  0.0743 -0.1698 -0.3155
   26TAL   C130 9647   3.227   8.331  -0.449 -0.6974 -0.1140 -0.5825
   27HTM   C131 9648   3.084   8.299  -0.059  0.1115  0.2020 -0.6195
   27HTM   C132 9649   2.954   8.270  -0.030 -0.0374  0.4559 -1.0304
   27HTM   C133 9650   2.927   8.130  -0.014 -0.2764  0.5369 -0.7129
   27HTM   C134 9651   3.037   8.051  -0.031 -0.3093  0.3435 -0.0586
   27HTM    S14 9652   3.184   8.148  -0.069 -0.0392  0.0431  0.2085
   28TAL   C135 9653   2.780   8.080   0.015 -0.2006 -0.1659 -0.2268
   28TAL   C136 9654   2.678   8.148  -0.070 -0.2189 -0.2544 -1.0855
   28TAL   C137 9655   2.528   8.102  -0.051 -0.4900  0.6326  0.4365
   28TAL   C138 9656   2.481   7.954  -0.066 -0.2937  0.4007 -0.1216
   28TAL   C139 9657   2.539   7.875  -0.182 -0.1687 -0.1567 -0.1048
   28TAL   C140 9658   2.473   7.737  -0.169 -0.0669  0.0169 -0.6823
   29HTM   C141 9659   3.056   7.907  -0.003  0.3142 -0.2273  0.6172
   29HTM   C142 9660   3.178   7.850   0.013  0.2259 -0.3703  0.7830
   29HTM   C143 9661   3.173   7.709   0.042  0.0305 -0.4461  0.3934
   29HTM   C144 9662   3.046   7.659   0.050 -0.0302 -0.3608 -0.0692
   29HTM    S15 9663   2.923   7.788   0.019  0.1560 -0.1773 -0.0494
   30TAL   C145 9664   3.303   7.620   0.054  0.3247  0.1654 -0.3581
   30TAL   C146 9665   3.441   7.670   0.111  0.4509  0.6340  0.2430
   30TAL   C147 9666   3.514   7.781   0.033  0.7710  0.0135 -0.3998
   30TAL   C148 9667   3.519   7.911   0.108 -0.0838 -0.4631  0.8144
   30TAL   C149 9668   3.573   8.023   0.024  0.1332 -0.0214 -0.1294
   30TAL   C150 9669   3.620   8.139   0.101 -0.5801 -0.0224 -0.1371
   31HTM   C151 9670   2.991   7.529   0.084 -0.1508  0.2757  0.2936
   31HTM   C152 9671   3.045   7.428   0.158  0.1701  0.4010  0.2310
   31HTM   C153 9672   2.956   7.316   0.177  0.5362  0.0939  0.1363
   31HTM   C154 9673   2.835   7.331   0.118  0.4945 -0.2656  0.1267
   31HTM    S16 9674   2.822   7.490   0.032 -0.0142 -0.2436  0.2378
   32TAL   C155 9675   3.004   7.198   0.262  0.1080  0.6522  0.2223
   32TAL   C156 9676   3.137   7.206   0.335  0.5029  0.2047  0.0291
   32TAL   C157 9677   3.117   7.287   0.469  0.2724 -0.7963  0.9263
   32TAL   C158 9678   3.248   7.315   0.548 -0.4090  0.3391  0.9019
   32TAL   C159 9679   3.344   7.412   0.473  0.1144  0.5444 -0.5510
   32TAL   C160 9680   3.464   7.446   0.550 -0.4457 -0.6918 -0.1660
   33HTM   C161 9681   2.717   7.242   0.119 -0.0141  0.2311  0.2924
   33HTM   C162 9682   2.703   7.108   0.139 -0.0187  0.3419  1.0409
   33HTM   C163 9683   2.567   7.062   0.132 -0.0093  0.2880  1.2015
   33HTM   C164 9684   2.477   7.161   0.105  0.0021  0.1354  0.5755
   33HTM    S17 9685   2.557   7.321   0.088  0.0022  0.0474 -0.2720
   34TAL   C165 9686   2.540   6.916   0.156 -0.1861 -0.3115 -0.0049
   34TAL   C166 9687   2.472   6.891   0.282 -0.8158 -0.1294 -0.3891
   34TAL   C167 9688   2.448   6.739   0.285  0.0997  0.4536  0.1824
   34TAL   C168 9689   2.408   6.696   0.423  0.7417  0.1261 -0.1840
   34TAL   C169 9690   2.340   6.562   0.437 -0.0729  0.6964 -0.0292
   34TAL   C170 9691   2.191   6.548   0.395 -1.4852  0.1060 -0.4759
   35HTM   C171 9692   2.331   7.158   0.089 -0.2706 -0.0023  0.3304
   35HTM   C172 9693   2.240   7.225   0.164 -0.5418  0.4442 -0.3817
   35HTM   C173 9694   2.103   7.202   0.125 -0.3948  0.3750 -0.8556
   35HTM   C174 9695   2.091   7.116   0.019 -0.0116 -0.1235 -0.5049
   35HTM    S18 9696   2.251   7.059  -0.039  0.1950 -0.5479  0.4584
   36TAL   C175 9697   1.989   7.270   0.188  0.0124  0.0945  0.0052
   36TAL   C176 9698   2.008   7.361   0.309  0.3080  0.2686  0.2525
   36TAL   C177 9699   2.096   7.486   0.301 -0.5308 -0.0184 -0.0852
   36TAL   C178 9700   2.066   7.588   0.188  0.7230 -0.6040  0.2675
   36TAL   C179 9701   2.185   7.681   0.176 -0.0645 -0.1858 -0.5854
   36TAL   C180 9702   2.169   7.794   0.082 -0.0274 -0.3249 -0.3974
   37HTM   C181 9703   1.972   7.077  -0.056  0.0391  0.2554 -0.1048
   37HTM   C182 9704   1.948   7.098  -0.188 -0.0182  0.8540 -0.0005
   37HTM   C183 9705   1.811   7.075  -0.227  0.0221  0.7727 -0.0944
   37HTM   C184 9706   1.731   7.036  -0.123  0.1101  0.1115 -0.2705
   37HTM    S19 9707   1.823   7.025   0.032  0.1493 -0.4631 -0.3310
   38TAL   C185 9708   1.764   7.110  -0.369 -0.6096  0.1811  0.5726
   38TAL   C186 9709   1.754   7.266  -0.398 -0.7528 -0.2750  0.3373
   38TAL   C187 9710   1.634   7.339  -0.329 -0.8658  0.0929 -0.5368
   38TAL   C188 9711   1.625   7.468  -0.403  1.0130 -0.3801 -0.2794
   38TAL   C189 9712   1.522   7.572  -0.355  0.4161  0.5805  0.0963
   38TAL   C190 9713   1.541   7.701  -0.431 -0.0032  0.7412  0.4784
   39HTM   C191 9714   1.599   6.974  -0.126  0.1474 -0.1686 -0.2205
   39HTM   C192 9715   1.556   6.868  -0.051  0.0870 -0.2129 -0.3176
   39HTM   C193 9716   1.428   6.817  -0.091  0.0134 -0.0415 -0.3033
   39HTM   C194 9717   1.373   6.883  -0.197  0.0175  0.1337 -0.1959
   39HTM    S20 9718   1.479   7.017  -0.254  0.1155  0.0955 -0.1041
   40TAL   C195 9719   1.381   6.699  -0.018 -0.0738 -0.6704 -0.6234
   40TAL   C196 9720   1.293   6.711   0.102  0.0753  0.2219  0.5630
   40TAL   C197 9721   1.157   6.777   0.096  0.1295  0.7745  0.7646
   40TAL   C198 9722   1.085   6.748   0.221  0.1110 -0.2156  0.4216
   40TAL   C199 9723   0.953   6.830   0.228 -0.4643  0.3604 -0.3197
   40TAL   C200 9724   0.893   6.837   0.371 -0.3916  0.3458  0.5936
   41HTM   C201 9725   1.238   6.867  -0.252 -0.0848  0.3508 -0.1270
   41HTM   C202 9726   1.139   6.959  -0.269 -0.3273  0.1168 -0.0067
   41HTM   C203 9727   1.013   6.903  -0.310 -0.2452 -0.1833  0.1493
   41HTM   C204 9728   1.016   6.768  -0.325  0.0600 -0.1788  0.1473
   41HTM    S21 9729   1.179   6.700  -0.287  0.2688  0.2087 -0.0526
   42TAL   C205 9730   0.882   6.973  -0.298  0.3772  0.2248 -0.1627
   42TAL   C206 9731   0.819   6.994  -0.155  0.5157  0.2797 -0.5822
   42TAL   C207 9732   0.702   6.901  -0.135 -1.1781 -0.0310 -0.0338
   42TAL   C208 9733   0.638   6.958  -0.010  0.7791  0.3494 -0.0464
   42TAL   C209 9734   0.532   6.869   0.057 -0.0820  0.1380 -0.6117
   42TAL   C210 9735   0.590   6.729   0.100  0.4706 -0.4355 -0.2807
   43HTM   C211 9736   0.916   6.668  -0.351 -0.5242  0.3774 -0.2482
   43HTM   C212 9737   0.817   6.676  -0.445 -0.8798  0.2148  0.1073
   43HTM   C213 9738   0.731   6.560  -0.448 -0.7285  0.0923  0.4506
   43HTM   C214 9739   0.764   6.465  -0.356 -0.2577  0.1612  0.3568
   43HTM    S22 9740   0.907   6.514  -0.258  0.0335  0.3881 -0.1778
   44TAL   C215 9741   0.611   6.564  -0.542 -0.3873 -0.7345  0.4317
   44TAL   C216 9742   0.619   6.516  -0.684 -0.1208 -0.5255 -0.6151
   44TAL   C217 9743   0.697   6.392  -0.723 -0.2134 -0.2873 -0.3683
   44TAL   C218 9744   0.699   6.366  -0.876 -0.8737 -0.1717 -0.1555
   44TAL   C219 9745   0.816   6.288  -0.948 -0.1282  0.5339  0.0155
   44TAL   C220 9746   0.956   6.332  -0.906 -0.0925 -0.5391 -0.5585
   45HTM   C221 9747   0.705   6.340  -0.328  0.1971  0.2979  0.1719
   45HTM   C222 9748   0.774   6.222  -0.327  0.4341  0.4373  0.6785
   45HTM   C223 9749   0.695   6.109  -0.285  0.5450  0.3908  0.7620
   45HTM   C224 9750   0.566   6.141  -0.254  0.3926  0.2158  0.3188
   45HTM    S23 9751   0.534   6.317  -0.275  0.0948  0.0954 -0.2423
   46TAL   C225 9752   0.750   5.963  -0.288 -0.0053 -0.0023 -0.3399
   46TAL   C226 9753   0.898   5.942  -0.325  0.1716 -0.7164  0.4016
   46TAL   C227 9754   0.954   5.810  -0.277 -0.1395 -0.5087  0.1357
   46TAL   C228 9755   1.096   5.775  -0.319  0.3949 -0.8148 -0.0870
   46TAL   C229 9756   1.118   5.628  -0.294  0.2998 -0.4242 -0.8214
   46TAL   C230 9757   1.246   5.572  -0.352  0.4138 -0.4552  0.2825
   47HTM   C231 9758   0.458   6.054  -0.193 -0.1170 -0.0256  0.0859
   47HTM   C232 9759   0.331   6.095  -0.169 -0.1418 -0.0653  0.0219
   47HTM   C233 9760   0.246   5.992  -0.115 -0.1570 -0.1123 -0.0911
   47HTM   C234 9761   0.310   5.872  -0.097 -0.1438 -0.1083 -0.1118
   47HTM    S24 9762   0.483   5.881  -0.148 -0.1108 -0.0445  0.0093
   48TAL   C235 9763   0.108   6.017  -0.062 -0.7087 -0.5906  0.5495
   48TAL   C236 9764   0.028   5.912   0.013  0.2125 -0.1597  0.3303
   48TAL   C237 9765  -0.076   5.978   0.092 -0.1178  0.2708 -0.9461
   48TAL   C238 9766  -0.183   6.048   0.012  0.4326 -0.1645 -1.0602
   48TAL   C239 9767  -0.318   6.077   0.075 -0.3355 -0.5860 -0.2557
   48TAL   C240 9768  -0.412   6.172   0.007  0.6415  0.2152  0.2255
    1HTM     C1 9769   5.655   8.097   3.000  0.1534 -0.4888  0.3693
    1HTM     C2 9770   5.550   8.015   2.971  0.3524 -0.6704  0.1510
    1HTM     C3 9771   5.575   7.925   2.862  0.4723 -0.1135 -0.2866
    1HTM     C4 9772   5.699   7.938   2.808  0.3651  0.4923 -0.4020
    1HTM     S1 9773   5.795   8.065   2.891  0.1019  0.4057  0.0365
    2TAL     C5 9774   5.469   7.816   2.825  0.2932 -0.0468 -0.0927
    2TAL     C6 9775   5.354   7.777   2.919  0.3998  0.2079 -0.1593
    2TAL     C7 9776   5.268   7.668   2.854 -0.2158 -0.1665 -0.1953
    2TAL     C8 9777   5.158   7.626   2.941 -0.1285 -0.2123 -0.1416
    2TAL     C9 9778   5.063   7.549   2.858  0.1519  0.3921 -0.5763
    2TAL    C10 9779   4.942   7.523   2.940  0.5098 -0.3961  0.3583
    3HTM    C11 9780   5.763   7.861   2.702  0.6226  0.4297 -0.3913
    3HTM    C12 9781   5.851   7.912   2.610  0.7555 -0.0546 -0.5325
    3HTM    C13 9782   5.896   7.815   2.514  0.4885 -0.4382 -0.2749
    3HTM    C14 9783   5.842   7.691   2.531  0.1517 -0.2466  0.0629
    3HTM     S2 9784   5.730   7.686   2.673  0.1459  0.4390  0.0818
    4TAL    C15 9785   6.009   7.844   2.406 -0.1706  0.0977 -0.1800
    4TAL    C16 9786   6.057   7.987   2.394  0.1286  0.0922 -0.3334
    4TAL    C17 9787   6.172   8.019   2.294 -0.3540 -0.6914 -0.3472
    4TAL    C18 9788   6.203   8.171   2.268  1.2467 -0.3754 -0.3239
    4TAL    C19 9789   6.303   8.200   2.156 -0.4693 -0.2191 -1.0524
    4TAL    C20 9790   6.438   8.126   2.166  0.5595 -0.0476  0.4480
    5HTM    C21 9791   5.855   7.571   2.450  0.1525 -0.1784 -0.3055
    5HTM    C22 9792   5.967   7.501   2.417  0.0954 -0.2797 -0.2862
    5HTM    C23 9793   5.942   7.390   2.329  0.0029 -0.2906 -0.2462
    5HTM    C24 9794   5.811   7.375   2.295 -0.0106 -0.1976 -0.2350
    5HTM     S3 9795   5.708   7.502   2.373  0.0936 -0.0883 -0.2747
    6TAL    C25 9796   6.055   7.316   2.262  0.6447 -0.2470  0.9911
    6TAL    C26 9797   6.171   7.389   2.183  0.2474  1.1277 -0.1524
    6TAL    C27 9798   6.284   7.467   2.258  0.2371 -0.1699 -0.3647
    6TAL    C28 9799   6.368   7.401   2.370  0.1770  0.2616 -0.4835
    6TAL    C29 9800   6.315   7.400   2.512 -0.3062  0.0548 -0.0893
    6TAL    C30 9801   6.334   7.538   2.582  0.2610  0.4015  0.0707
    7HTM    C31 9802   5.739   7.267   2.237  0.1087  0.2355  0.7284
    7HTM    C32 9803   5.642   7.269   2.141 -0.0474  0.7312  0.8934
    7HTM    C33 9804   5.572   7.144   2.127 -0.2480  0.8824  0.5444
    7HTM    C34 9805   5.615   7.047   2.212 -0.2446  0.5015  0.1135
    7HTM     S4 9806   5.749   7.106   2.318  0.0136 -0.0818  0.1148
    8TAL    C35 9807   5.444   7.157   2.054 -0.1240  0.3547 -1.4221
    8TAL    C36 9808   5.350   7.041   2.035 -0.2829  0.1696 -0.3200
    8TAL    C37 9809   5.233   7.047   1.935 -0.2154  0.1379  0.1291
    8TAL    C38 9810   5.155   6.919   1.930  0.8395 -0.0230  0.3369
    8TAL    C39 9811   5.040   6.937   1.829 -0.5074 -0.0689  0.2775
    8TAL    C40 9812   4.935   6.835   1.819  0.4212  0.1721  0.2567
    9HTM    C41 9813   5.577   6.906   2.218 -0.1219 -0.1135  0.1541
    9HTM    C42 9814   5.587   6.811   2.121 -0.5891 -0.0534  0.0465
    9HTM    C43 9815   5.572   6.676   2.170 -0.8345 -0.0572 -0.0401
    9HTM    C44 9816   5.550   6.668   2.304 -0.5544 -0.1203  0.0015
    9HTM     S5 9817   5.548   6.832   2.380  0.0455 -0.1802  0.1544
   10TAL    C45 9818   5.552   6.559   2.076  1.3895  0.3019  0.0302
   10TAL    C46 9819   5.459   6.568   1.955  0.4525 -0.2897 -0.1388
   10TAL    C47 9820   5.310   6.595   1.978  0.2587 -0.0959  0.6464
   10TAL    C48 9821   5.236   6.495   2.061  0.6603 -0.4343 -0.6249
   10TAL    C49 9822   5.089   6.516   2.086  0.1816 -0.3571  0.2567
   10TAL    C50 9823   5.025   6.402   2.161  0.0549  0.1261  0.5937
   11HTM    C51 9824   5.541   6.551   2.394 -0.1418  0.0452  0.1513
   11HTM    C52 9825   5.643   6.475   2.444  0.0453  0.2973  0.1527
   11HTM    C53 9826   5.600   6.351   2.503  0.3378  0.2573  0.2836
   11HTM    C54 9827   5.465   6.332   2.498  0.3738 -0.0261  0.3818
   11HTM     S6 9828   5.381   6.471   2.418  0.0381 -0.2652  0.3162
   12TAL    C55 9829   5.710   6.267   2.569  0.2248 -0.3919  0.1224
   12TAL    C56 9830   5.823   6.214   2.488 -0.1717 -0.1390  0.0979
   12TAL    C57 9831   5.933   6.171   2.574 -0.8903  1.2346 -0.5401
   12TAL    C58 9832   6.028   6.079   2.492 -0.1687  0.0281 -0.0706
   12TAL    C59 9833   6.157   6.045   2.566  0.8926 -0.4094  0.3118
   12TAL    C60 9834   6.253   5.942   2.501 -0.1134 -0.4972 -0.6283
   13HTM    C61 9835   5.376   6.221   2.540  0.1309 -0.5199  0.1367
   13HTM    C62 9836   5.295   6.142   2.464  0.4377 -0.8061  0.1087
   13HTM    C63 9837   5.219   6.046   2.540  0.4177 -0.7772  0.1248
   13HTM    C64 9838   5.242   6.053   2.675  0.0959 -0.4687  0.1651
   13HTM     S7 9839   5.362   6.182   2.715 -0.2092 -0.1889  0.1859
   14TAL    C65 9840   5.118   5.947   2.475 -0.2542 -0.8267 -0.1575
   14TAL    C66 9841   5.162   5.836   2.385  0.1143  0.8546 -0.1481
   14TAL    C67 9842   5.268   5.747   2.452  0.1476  0.0903  0.6177
   14TAL    C68 9843   5.228   5.659   2.569 -0.0740  0.0758  0.0047
   14TAL    C69 9844   5.360   5.601   2.624  0.6230  0.1540 -0.2236
   14TAL    C70 9845   5.333   5.518   2.740  0.2196 -0.2121 -0.0971
   15HTM    C71 9846   5.202   5.978   2.791 -0.2324  0.1919  0.1855
   15HTM    C72 9847   5.260   5.978   2.915 -0.0632 -0.1197  0.1081
   15HTM    C73 9848   5.190   5.899   3.012  0.2639 -0.6506 -0.0817
   15HTM    C74 9849   5.078   5.838   2.963  0.3438 -0.7437 -0.1489
   15HTM     S8 9850   5.053   5.877   2.789  0.0099 -0.1639  0.0235
   16TAL    C75 9851   5.231   5.896   3.160 -0.4324  0.7834  0.2789
   16TAL    C76 9852   5.383   5.928   3.186  0.1390 -0.1254 -0.0953
   16TAL    C77 9853   5.480   5.805   3.202  0.0493 -0.0709 -0.3157
   16TAL    C78 9854   5.484   5.701   3.089 -0.0003 -0.1948 -0.0228
   16TAL    C79 9855   5.554   5.566   3.110 -0.7904  0.5058 -0.1566
   16TAL    C80 9856   5.702   5.564   3.093  0.4761  0.3118 -0.9616
   17HTM    C81 9857   4.991   5.742   3.029  0.0127 -0.3290 -0.1988
   17HTM    C82 9858   5.038   5.627   3.084 -0.0827 -0.4120 -0.2910
   17HTM    C83 9859   4.935   5.537   3.127 -0.1602 -0.2196 -0.0701
   17HTM    C84 9860   4.809   5.583   3.104 -0.1237  0.0106  0.1908
   17HTM     S9 9861   4.811   5.746   3.026  0.0124  0.0019  0.1773
   18TAL    C85 9862   4.970   5.400   3.198 -0.0232 -0.8629  0.0317
   18TAL    C86 9863   5.054   5.299   3.128  0.0410 -0.2503  0.5603
   18TAL    C87 9864   5.198   5.332   3.114  0.0429 -0.1438 -0.1679
   18TAL    C88 9865   5.275   5.219   3.038  0.1062  0.1664 -0.2706
   18TAL    C89 9866   5.419   5.256   3.006  0.7004  0.3927 -0.1736
   18TAL    C90 9867   5.463   5.119   2.954 -0.0322 -0.3347 -0.3301
   19HTM    C91 9868   4.671   5.536   3.130  0.1694  0.1822  0.0591
   19HTM    C92 9869   4.633   5.414   3.177  0.0048  0.2718  0.1591
   19HTM    C93 9870   4.493   5.405   3.207 -0.0308  0.4466  0.0476
   19HTM    C94 9871   4.424   5.520   3.182  0.1068  0.4901 -0.1376
   19HTM    S10 9872   4.532   5.650   3.119  0.2931  0.3127 -0.1859
   20TAL    C95 9873   4.431   5.281   3.279 -0.1010  0.1461 -0.4463
   20TAL    C96 9874   4.507   5.156   3.300 -0.2115  0.3679  0.1240
   20TAL    C97 9875   4.415   5.055   3.373 -0.4986 -0.2066  1.1213
   20TAL    C98 9876   4.482   4.923   3.407  0.1813  0.7287 -0.2812
   20TAL    C99 9877   4.387   4.815   3.455  0.6113  0.1931 -0.2922
   20TAL   C100 9878   4.466   4.691   3.504  0.2003  0.0998 -0.6166
   21HTM   C101 9879   4.285   5.557   3.205 -0.5236 -0.2637  0.1974
   21HTM   C102 9880   4.228   5.668   3.150 -0.5324 -0.3896 -0.0485
   21HTM   C103 9881   4.086   5.677   3.172 -0.5639 -0.4456 -0.2260
   21HTM   C104 9882   4.035   5.573   3.243 -0.5787 -0.3622 -0.1156
   21HTM    S11 9883   4.163   5.454   3.289 -0.5541 -0.2056  0.2240
   22TAL   C105 9884   4.004   5.808   3.137 -0.0925  0.6139  0.2188
   22TAL   C106 9885   4.018   5.858   2.995 -0.0775  0.7551  0.2684
   22TAL   C107 9886   3.941   5.991   2.975  0.0498  0.3206 -0.6775
   22TAL   C108 9887   3.938   6.033   2.832  0.5079 -0.0732  0.3504
   22TAL   C109 9888   3.852   6.164   2.799 -0.0001 -0.0511 -0.4768
   22TAL   C110 9889   3.701   6.151   2.817  0.1118 -0.1214  0.2151
   23HTM   C111 9890   3.897   5.534   3.237  0.3627 -0.1430  0.3929
   23HTM   C112 9891   3.787   5.603   3.279  0.3830  0.0293  0.1676
   23HTM   C113 9892   3.663   5.550   3.230  0.3927  0.1450  0.0188
   23HTM   C114 9893   3.677   5.440   3.150  0.3795  0.0612  0.1307
   23HTM    S12 9894   3.851   5.395   3.130  0.3542 -0.1725  0.4350
   24TAL   C115 9895   3.537   5.623   3.269  0.0513  0.0940 -0.6229
   24TAL   C116 9896   3.477   5.727   3.183 -0.0160 -0.3669 -0.4621
   24TAL   C117 9897   3.335   5.767   3.208 -0.9866 -0.5064  0.2686
   24TAL   C118 9898   3.214   5.672   3.183  0.6334  0.4110  0.1627
   24TAL   C119 9899   3.187   5.653   3.034  0.0893 -0.8469 -0.0947
   24TAL   C120 9900   3.055   5.577   3.023  0.5156  0.1431  0.4869
   25HTM   C121 9901   3.576   5.359   3.075 -0.1973 -0.2269  0.0534
   25HTM   C122 9902   3.606   5.271   2.975 -0.2623 -0.4632  0.2390
   25HTM   C123 9903   3.491   5.221   2.905 -0.3011 -0.5445  0.3614
   25HTM   C124 9904   3.372   5.271   2.953 -0.2658 -0.3699  0.2691
   25HTM    S13 9905   3.398   5.385   3.090 -0.1799 -0.0873  0.0187
   26TAL   C125 9906   3.510   5.121   2.797  0.1777 -0.6509  0.8959
   26TAL   C126 9907   3.445   4.983   2.822 -1.0374 -0.5844  0.0047
   26TAL   C127 9908   3.479   4.915   2.954  0.3923  0.6712 -0.0275
   26TAL   C128 9909   3.392   4.794   2.987 -0.6327 -0.7891 -0.9161
   26TAL   C129 9910   3.248   4.833   3.003 -0.5724 -0.3967 -0.2487
   26TAL   C130 9911   3.151   4.720   3.024 -0.9397  0.4879 -0.5751
   27HTM   C131 9912   3.237   5.243   2.917  0.3509 -0.4287 -0.1584
   27HTM   C132 9913   3.141   5.181   2.991  0.4317 -0.4127 -0.0385
   27HTM   C133 9914   3.025   5.143   2.914  0.2570 -0.2422  0.1398
   27HTM   C134 9915   3.033   5.176   2.782  0.0429 -0.1277  0.1558
   27HTM    S14 9916   3.188   5.259   2.744  0.0453 -0.2278 -0.0546
   28TAL   C135 9917   2.904   5.080   2.986 -0.5224 -0.4260 -0.1883
   28TAL   C136 9918   2.810   4.985   2.907 -0.5981  0.2826  0.2102
   28TAL   C137 9919   2.866   4.850   2.861 -0.0317 -0.8805  0.5892
   28TAL   C138 9920   2.767   4.749   2.798 -0.3356  0.2913  0.8451
   28TAL   C139 9921   2.819   4.603   2.815  0.0313 -0.2310 -0.0898
   28TAL   C140 9922   2.722   4.489   2.773 -0.3115 -0.5475 -0.3448
   29HTM   C141 9923   2.938   5.165   2.673 -0.1819 -0.0325 -0.2006
   29HTM   C142 9924   2.943   5.061   2.586 -0.0718 -0.1018 -0.1123
   29HTM   C143 9925   2.819   5.037   2.517 -0.0015 -0.1917 -0.2081
   29HTM   C144 9926   2.719   5.123   2.552 -0.0583 -0.1906 -0.3695
   29HTM    S15 9927   2.775   5.242   2.676 -0.2059 -0.0753 -0.4132
   30TAL   C145 9928   2.815   4.925   2.408  0.3415 -1.0388 -0.2698
   30TAL   C146 9929   2.863   4.793   2.455  0.3939 -0.4723 -0.7453
   30TAL   C147 9930   2.849   4.674   2.367 -0.3045  0.0952 -0.1746
   30TAL   C148 9931   2.945   4.559   2.391  0.1775 -0.0903  0.1461
   30TAL   C149 9932   2.965   4.485   2.261 -0.2763  0.2294  0.0701
   30TAL   C150 9933   3.062   4.369   2.274  0.3842 -0.3052  0.1540
   31HTM   C151 9934   2.584   5.143   2.493  0.3380 -0.0601 -0.4834
   31HTM   C152 9935   2.527   5.262   2.460  0.4828 -0.1218 -0.9680
   31HTM   C153 9936   2.399   5.248   2.395  0.4473 -0.2306 -0.8759
   31HTM   C154 9937   2.359   5.119   2.378  0.2754 -0.2518 -0.3209
   31HTM    S16 9938   2.481   5.003   2.444  0.1439 -0.1351  0.1316
   32TAL   C155 9939   2.313   5.368   2.360 -0.0344 -0.8309  0.1815
   32TAL   C156 9940   2.332   5.501   2.428  0.1721  0.0104  0.1724
   32TAL   C157 9941   2.231   5.595   2.389  0.4198  0.8344 -0.3730
   32TAL   C158 9942   2.277   5.739   2.414 -0.2430  0.1692 -0.4128
   32TAL   C159 9943   2.179   5.845   2.372 -0.0824 -0.6275  0.3751
   32TAL   C160 9944   2.242   5.977   2.419  0.6077 -0.4912 -0.1516
   33HTM   C161 9945   2.244   5.052   2.321  0.4264 -0.0153  0.0826
   33HTM   C162 9946   2.149   5.109   2.242  0.5707  0.0057 -0.0764
   33HTM   C163 9947   2.053   5.015   2.191  0.5848  0.0401 -0.1661
   33HTM   C164 9948   2.075   4.887   2.231  0.4514  0.0450 -0.0755
   33HTM    S17 9949   2.220   4.874   2.338  0.2963  0.0069  0.1318
   34TAL   C165 9950   1.932   5.057   2.108 -0.9815  0.3440  0.0787
   34TAL   C166 9951   1.902   5.201   2.064  0.4469 -0.6471  0.4768
   34TAL   C167 9952   1.876   5.305   2.164  0.0421 -0.4765 -0.4364
   34TAL   C168 9953   1.834   5.438   2.103 -0.0810 -0.3275  0.5609
   34TAL   C169 9954   1.834   5.555   2.200 -0.2404 -0.2872  0.0639
   34TAL   C170 9955   1.807   5.684   2.128  0.2016 -0.4745  0.4985
   35HTM   C171 9956   2.015   4.760   2.197  0.1243  0.1141 -0.0811
   35HTM   C172 9957   2.053   4.645   2.260  0.3973  0.0072 -0.4417
   35HTM   C173 9958   1.967   4.533   2.233  0.5113 -0.0465 -0.5811
   35HTM   C174 9959   1.863   4.562   2.149  0.3253  0.0192 -0.3269
   35HTM    S18 9960   1.866   4.735   2.098 -0.0110  0.1555  0.1118
   36TAL   C175 9961   2.010   4.392   2.279 -0.1642 -0.4860  0.2406
   36TAL   C176 9962   2.003   4.373   2.430  0.3974  0.3296  0.1546
   36TAL   C177 9963   1.871   4.348   2.509  0.2651  0.9519 -0.2332
   36TAL   C178 9964   1.789   4.235   2.464  0.6862  0.2847  0.3717
   36TAL   C179 9965   1.855   4.098   2.466 -0.3534 -0.1765  0.9613
   36TAL   C180 9966   1.765   4.001   2.398 -0.4177  0.1731 -0.4950
   37HTM   C181 9967   1.747   4.478   2.113 -0.0142 -0.4200  0.3328
   37HTM   C182 9968   1.728   4.344   2.128 -0.1420 -0.3982  0.3694
   37HTM   C183 9969   1.602   4.297   2.076 -0.1488 -0.3068  0.3036
   37HTM   C184 9970   1.526   4.396   2.021 -0.0260 -0.2588  0.2171
   37HTM    S19 9971   1.607   4.556   2.031  0.1086 -0.3264  0.2115
   38TAL   C185 9972   1.549   4.153   2.094 -0.0811 -0.1367  0.0366
   38TAL   C186 9973   1.477   4.115   2.222 -0.1168 -0.2793  0.1464
   38TAL   C187 9974   1.367   4.217   2.262 -0.3805 -0.1403 -0.6499
   38TAL   C188 9975   1.283   4.185   2.389 -0.1935 -0.0832 -0.5460
   38TAL   C189 9976   1.173   4.281   2.413 -1.1551 -1.0698  0.4099
   38TAL   C190 9977   1.091   4.257   2.534  0.3977  0.2321  0.2947
   39HTM   C191 9978   1.401   4.393   1.952  0.1326  0.0447 -0.0271
   39HTM   C192 9979   1.284   4.450   1.991  0.2275  0.2320 -0.0187
   39HTM   C193 9980   1.173   4.420   1.905  0.1463  0.3104  0.0579
   39HTM   C194 9981   1.205   4.339   1.800 -0.0104  0.1832  0.1079
   39HTM    S20 9982   1.380   4.294   1.802 -0.0681 -0.0476  0.0617
   40TAL   C195 9983   1.044   4.483   1.951 -0.4375  0.0206  0.5514
   40TAL   C196 9984   0.987   4.466   2.097 -0.0601 -0.3082  1.0748
   40TAL   C197 9985   0.843   4.522   2.119  0.5289 -0.5813  0.1195
   40TAL   C198 9986   0.823   4.666   2.082 -0.3611 -0.6235 -0.6088
   40TAL   C199 9987   0.677   4.712   2.099  0.3349 -0.1206  0.5255
   40TAL   C200 9988   0.648   4.865   2.095  0.0787  0.2486 -0.1767
   41HTM   C201 9989   1.124   4.296   1.689  0.0259 -0.2630  0.0613
   41HTM   C202 9990   1.167   4.245   1.570 -0.0045 -0.0112 -0.0596
   41HTM   C203 9991   1.060   4.212   1.479 -0.0197  0.3562 -0.1750
   41HTM   C204 9992   0.936   4.239   1.528 -0.0006  0.3848 -0.1420
   41HTM    S21 9993   0.944   4.307   1.694  0.0380 -0.0538  0.0387
   42TAL   C205 9994   1.088   4.169   1.330  0.6670 -0.6646 -0.5345
   42TAL   C206 9995   1.159   4.265   1.230  0.7690  0.2354 -0.2381
   42TAL   C207 9996   1.119   4.414   1.237 -0.6074 -0.9899  0.0440
   42TAL   C208 9997   1.184   4.496   1.117  0.4587  0.4502  0.1459
   42TAL   C209 9998   1.130   4.457   0.983 -0.4637 -0.2917 -0.1805
   42TAL   C210 9999   1.150   4.557   0.875 -0.2794 -0.7080 -0.5873
   43HTM   C21110000   0.803   4.221   1.473 -0.1052 -0.4096 -0.3888
   43HTM   C21210001   0.773   4.284   1.356 -0.0992 -0.9770 -0.6967
   43HTM   C21310002   0.633   4.310   1.338 -0.0553 -0.7064 -0.6480
   43HTM   C21410003   0.555   4.268   1.442 -0.0279  0.0674 -0.3031
   43HTM    S2210004   0.655   4.190   1.571 -0.0557  0.5177 -0.0108
   44TAL   C21510005   0.598   4.406   1.227 -0.2999 -0.3111 -0.1726
   44TAL   C21610006   0.702   4.515   1.180 -0.0886  0.3823  0.3943
   44TAL   C21710007   0.771   4.614   1.278  0.1362 -0.6725  0.5355
   44TAL   C21810008   0.692   4.711   1.373  0.2268 -0.1954  0.3099
   44TAL   C21910009   0.784   4.809   1.457 -0.2240  0.4608 -0.5524
   44TAL   C22010010   0.864   4.916   1.384 -0.2147 -0.3569 -0.2481
   45HTM   C22110011   0.413   4.264   1.463  0.2812 -0.7801 -0.0658
   45HTM   C22210012   0.337   4.194   1.551  0.1343 -1.0791 -0.4294
   45HTM   C22310013   0.195   4.207   1.528  0.1598 -0.6568 -0.3648
   45HTM   C22410014   0.164   4.286   1.422  0.3260 -0.0354  0.0480
   45HTM    S2310015   0.312   4.352   1.343  0.4644  0.0646  0.3898
   46TAL   C22510016   0.094   4.169   1.633 -0.0461 -0.0164  0.0074
   46TAL   C22610017   0.114   4.032   1.700 -0.2593  0.1966  0.1639
   46TAL   C22710018   0.005   4.005   1.803  0.3733  0.6390  0.4201
   46TAL   C22810019  -0.039   3.862   1.792 -0.0162  0.1200 -0.0041
   46TAL   C22910020  -0.147   3.832   1.901  0.4332 -0.1744 -0.3930
   46TAL   C23010021  -0.289   3.883   1.877 -0.3226  0.2699  0.3551
   47HTM   C23110022   0.032   4.323   1.368 -0.1346 -0.2311 -0.4609
   47HTM   C23210023  -0.011   4.303   1.240 -0.4760  0.0021 -0.3847
   47HTM   C23310024  -0.145   4.351   1.215 -0.4716  0.2186  0.0085
   47HTM   C23410025  -0.203   4.409   1.324 -0.1268  0.1499  0.2322
   47HTM    S2410026  -0.094   4.407   1.467  0.2214 -0.1956 -0.0386
   48TAL   C23510027  -0.219   4.350   1.091 -0.3242 -0.6168 -0.2701
   48TAL   C23610028  -0.187   4.231   0.995 -0.1819 -0.3770  0.3858
   48TAL   C23710029  -0.225   4.091   1.018  0.2673 -0.0955  0.1694
   48TAL   C23810030  -0.372   4.054   1.022 -0.6118 -0.2439 -0.5624
   48TAL   C23910031  -0.386   3.916   1.079 -0.4835  0.0727  0.2870
   48TAL   C24010032  -0.537   3.893   1.095  0.1570  0.4497  0.0369
    1HTM     C110033   3.029   7.713   3.555 -0.3886 -0.2632 -0.1794
    1HTM     C210034   2.905   7.764   3.530 -0.7461 -0.9561  0.1298
    1HTM     C310035   2.844   7.826   3.644 -0.6483 -0.9708  0.1907
    1HTM     C410036   2.920   7.822   3.757 -0.2158 -0.2895 -0.0721
    1HTM     S110037   3.078   7.739   3.727  0.1034  0.4292 -0.4197
    2TAL     C510038   2.712   7.900   3.633 -0.1056 -0.0091 -0.3437
    2TAL     C610039   2.598   7.852   3.544 -0.1597  0.4282  0.2053
    2TAL     C710040   2.552   7.710   3.554  0.1535 -0.3391 -0.1635
    2TAL     C810041   2.418   7.681   3.489 -0.4317  0.0370  0.1771
    2TAL     C910042   2.381   7.536   3.481  0.0304  0.1230  0.5576
    2TAL    C1010043   2.230   7.510   3.455  0.0811  0.2460 -0.6290
    3HTM    C1110044   2.904   7.878   3.891 -0.2640  0.1614  0.3532
    3HTM    C1210045   2.789   7.894   3.962 -0.2176  0.4172  0.3700
    3HTM    C1310046   2.809   7.960   4.088 -0.0920  0.6125  0.2496
    3HTM    C1410047   2.938   7.994   4.114 -0.0425  0.5061  0.1407
    3HTM     S210048   3.047   7.945   3.978 -0.1519  0.1475  0.1820
    4TAL    C1510049   2.689   7.997   4.184  0.4909  0.4467 -0.5152
    4TAL    C1610050   2.544   7.980   4.132  0.1461  0.0224  0.0170
    4TAL    C1710051   2.424   7.998   4.227 -0.0850  0.4968 -0.3226
    4TAL    C1810052   2.416   8.132   4.296  0.3227  0.4226 -0.7424
    4TAL    C1910053   2.375   8.257   4.219 -0.5572 -0.3123 -0.0232
    4TAL    C2010054   2.251   8.243   4.130  0.0437 -0.4090 -0.0985
    5HTM    C2110055   2.998   8.074   4.218  0.3492 -0.4314  0.1857
    5HTM    C2210056   2.984   8.055   4.353  0.6275 -0.4830  0.2084
    5HTM    C2310057   3.056   8.151   4.432  0.3399 -0.1702  0.0951
    5HTM    C2410058   3.125   8.243   4.359 -0.1579  0.1206 -0.0135
    5HTM     S310059   3.104   8.215   4.182 -0.3029  0.0211  0.0187
    6TAL    C2510060   3.057   8.147   4.587 -0.1036 -0.0887  0.2511
    6TAL    C2610061   2.916   8.155   4.642 -0.0321 -0.0426  0.3521
    6TAL    C2710062   2.901   8.231   4.776  0.0446 -0.0334  0.4042
    6TAL    C2810063   2.988   8.215   4.898  0.0348  0.0210  0.1108
    6TAL    C2910064   3.003   8.069   4.936  0.1390  0.3263  0.3799
    6TAL    C3010065   3.133   7.999   4.900  0.3164  0.5539  0.2935
    7HTM    C3110066   3.212   8.347   4.394 -0.0222 -0.3507 -0.1782
    7HTM    C3210067   3.173   8.455   4.466 -0.5983 -0.3734 -0.4525
    7HTM    C3310068   3.274   8.558   4.477 -0.9477 -0.0463 -0.2537
    7HTM    C3410069   3.390   8.527   4.413 -0.6381  0.2262  0.1725
    7HTM     S410070   3.381   8.365   4.333  0.1247  0.0891  0.3568
    8TAL    C3510071   3.255   8.688   4.562 -0.0877 -0.0826 -0.6444
    8TAL    C3610072   3.122   8.704   4.644 -0.1266  0.7049 -0.1000
    8TAL    C3710073   3.022   8.810   4.591 -0.0087 -0.0274 -0.2700
    8TAL    C3810074   2.895   8.844   4.674  0.9208 -0.1514 -0.5667
    8TAL    C3910075   2.810   8.717   4.700 -0.2642 -0.1886 -0.8228
    8TAL    C4010076   2.692   8.741   4.794  0.1524  0.0444  0.4701
    9HTM    C4110077   3.508   8.610   4.388  0.1925 -0.1782 -0.1540
    9HTM    C4210078   3.626   8.566   4.335  0.2928 -0.1583  0.0505
    9HTM    C4310079   3.718   8.671   4.302  0.2642 -0.1321  0.0536
    9HTM    C4410080   3.672   8.796   4.330  0.1421 -0.1318 -0.1483
    9HTM     S510081   3.506   8.790   4.401  0.0534 -0.1648 -0.3600
   10TAL    C4510082   3.851   8.640   4.225  0.2925 -0.1382  0.3930
   10TAL    C4610083   3.833   8.609   4.075  0.0501 -0.7071  0.4811
   10TAL    C4710084   3.962   8.557   4.005 -1.0915 -0.7060 -0.6432
   10TAL    C4810085   4.095   8.640   4.008 -0.2646 -0.4462 -0.2160
   10TAL    C4910086   4.067   8.770   3.916  0.1505  0.3432 -0.6044
   10TAL    C5010087   4.182   8.875   3.920 -0.2285  0.5007 -0.0809
   11HTM    C5110088   3.732   8.924   4.310 -0.3609  0.3320 -0.6120
   11HTM    C5210089   3.662   9.041   4.301 -0.1332  0.4463 -0.9062
   11HTM    C5310090   3.746   9.157   4.289  0.1063  0.2913 -0.7436
   11HTM    C5410091   3.880   9.129   4.288  0.0610  0.0607 -0.3256
   11HTM     S610092   3.910   8.952   4.303 -0.2900  0.0187 -0.1026
   12TAL    C5510093   3.690   9.302   4.288 -0.5441  0.7795  0.5864
   12TAL    C5610094   3.582   9.354   4.378 -0.0037 -0.3727 -0.1561
   12TAL    C5710095   3.434   9.318   4.348  0.5225  0.0453 -0.3159
   12TAL    C5810096   3.342   9.386   4.446  0.1544  0.1416 -0.2900
   12TAL    C5910097   3.198   9.332   4.430 -0.6612 -0.1807 -0.1682
   12TAL    C6010098   3.183   9.176   4.465 -0.0994 -0.0865 -0.6595
   13HTM    C6110099   3.995   9.214   4.290 -0.2419  0.3329  0.2636
   13HTM    C6210100   4.017   9.309   4.194 -0.3209  0.6703  0.5772
   13HTM    C6310101   4.143   9.377   4.208 -0.2456  0.5209  0.6278
   13HTM    C6410102   4.217   9.334   4.314 -0.1086  0.0697  0.3529
   13HTM     S710103   4.133   9.204   4.405 -0.0634 -0.2037  0.0060
   14TAL    C6510104   4.179   9.502   4.126  0.4478 -0.4808 -0.1758
   14TAL    C6610105   4.072   9.610   4.112  0.2446  0.2781  0.2162
   14TAL    C6710106   3.957   9.579   4.016  0.0425 -0.5184  0.8261
   14TAL    C6810107   3.878   9.703   3.985  0.0892 -0.4623  0.3557
   14TAL    C6910108   3.763   9.681   3.894 -0.0689 -0.1735  0.3000
   14TAL    C7010109   3.690   9.814   3.870  0.4274 -0.3368 -0.3232
   15HTM    C7110110   4.344   9.384   4.370  0.1396 -0.6866 -0.1954
   15HTM    C7210111   4.364   9.461   4.481 -0.1400 -1.0035  0.0746
   15HTM    C7310112   4.497   9.515   4.491 -0.3271 -0.5790  0.2792
   15HTM    C7410113   4.578   9.480   4.388 -0.1905  0.0616  0.1654
   15HTM     S810114   4.493   9.375   4.269  0.1882  0.1793 -0.2122
   16TAL    C7510115   4.548   9.597   4.610  0.1676  0.3387 -0.0625
   16TAL    C7610116   4.463   9.701   4.688 -0.2332  0.4661 -0.1890
   16TAL    C7710117   4.401   9.803   4.595  0.0793  0.3277  0.5097
   16TAL    C7810118   4.272   9.859   4.656  0.5407 -0.0423  0.5885
   16TAL    C7910119   4.234   9.989   4.586  0.0927 -0.2924  0.4220
   16TAL    C8010120   4.143  10.065   4.678  0.1637 -0.2609  0.4262
   17HTM    C8110121   4.719   9.507   4.353 -0.3084  0.2225  0.1818
   17HTM    C8210122   4.814   9.411   4.332 -0.5748 -0.1888  0.8020
   17HTM    C8310123   4.949   9.462   4.336 -0.4144 -0.6265  0.9387
   17HTM    C8410124   4.957   9.596   4.361 -0.0249 -0.5490  0.4224
   17HTM     S910125   4.793   9.669   4.381  0.1702  0.0879 -0.2814
   18TAL    C8510126   5.054   9.354   4.313 -0.0656  0.2540  0.3667
   18TAL    C8610127   5.113   9.296   4.444  0.0248  0.1216  0.3608
   18TAL    C8710128   5.230   9.203   4.408  0.2860 -0.5024 -0.8281
   18TAL    C8810129   5.351   9.282   4.367 -0.3823 -0.1633  0.3109
   18TAL    C8910130   5.478   9.200   4.402  0.2872  0.0841 -0.1420
   18TAL    C9010131   5.605   9.232   4.324  0.6159 -0.7690  0.0839
   19HTM    C9110132   5.078   9.681   4.358 -0.1207  0.0355 -0.2587
   19HTM    C9210133   5.078   9.817   4.352  0.0291  0.0656  0.4110
   19HTM    C9310134   5.210   9.874   4.337  0.1218  0.0121  0.9878
   19HTM    C9410135   5.310   9.782   4.331  0.0425 -0.0588  0.7571
   19HTM    S1010136   5.245   9.614   4.344 -0.1567 -0.0636 -0.2138
   20TAL    C9510137   5.226  10.029   4.342  0.2888 -0.1832 -0.1319
   20TAL    C9610138   5.119  10.112   4.268  0.1838  0.2831 -0.3843
   20TAL    C9710139   5.148  10.249   4.210  0.1099 -0.2495 -0.5743
   20TAL    C9810140   5.273  10.286   4.126 -0.4217  0.2637  0.0974
   20TAL    C9910141   5.414  10.270   4.182 -0.3606  0.1002 -0.4292
   20TAL   C10010142   5.532  10.310   4.094 -0.1975 -0.0489 -0.0209
   21HTM   C10110143   5.455   9.793   4.304 -0.0559  0.3329 -0.5772
   21HTM   C10210144   5.542   9.689   4.288 -0.2236  0.2313 -0.8326
   21HTM   C10310145   5.677   9.731   4.261 -0.1888  0.0767 -0.9019
   21HTM   C10410146   5.693   9.866   4.257  0.0053  0.0605 -0.6997
   21HTM    S1110147   5.537   9.952   4.287  0.1607  0.2406 -0.4036
   22TAL   C10510148   5.781   9.638   4.216  0.1094 -0.4184 -0.4384
   22TAL   C10610149   5.823   9.510   4.295  0.0421 -0.2274 -0.5547
   22TAL   C10710150   5.880   9.532   4.435  0.0069  0.4526 -0.2249
   22TAL   C10810151   5.787   9.600   4.538 -0.1412 -0.3910 -0.3711
   22TAL   C10910152   5.652   9.550   4.580 -0.3564  0.3266  0.0516
   22TAL   C11010153   5.651   9.411   4.635  0.2407  0.2088 -0.2285
   23HTM   C11110154   5.798   9.955   4.235 -0.1822  0.0595  0.0691
   23HTM   C11210155   5.815  10.040   4.129 -0.4425  0.2683  0.1929
   23HTM   C11310156   5.939  10.114   4.135 -0.4954  0.3631  0.1078
   23HTM   C11410157   6.015  10.086   4.244 -0.2755  0.2266 -0.0808
   23HTM    S1210158   5.936   9.962   4.350  0.0173 -0.0342 -0.1661
   24TAL   C11510159   5.991  10.198   4.019 -0.3667  0.0547  0.4447
   24TAL   C11610160   5.947  10.179   3.883 -0.2922 -0.6230  0.0211
   24TAL   C11710161   5.963  10.046   3.813  0.3096  0.4046  0.2949
   24TAL   C11810162   6.099   9.975   3.804 -0.0912  0.1829  0.1139
   24TAL   C11910163   6.160   9.908   3.926  0.8164 -0.2313  0.4087
   24TAL   C12010164   6.083   9.797   4.002 -0.3072  0.3184 -0.6801
   25HTM   C12110165   6.145  10.146   4.290  0.0441  0.1229 -0.0997
   25HTM   C12210166   6.246  10.207   4.222 -0.1760  0.4808 -0.1059
   25HTM   C12310167   6.349  10.262   4.307 -0.2577  0.6575 -0.1209
   25HTM   C12410168   6.326  10.243   4.440 -0.1002  0.4343 -0.1260
   25HTM    S1310169   6.172  10.153   4.468  0.1652 -0.0198 -0.1123
   26TAL   C12510170   6.470  10.331   4.242  0.2683 -0.4306  0.0568
   26TAL   C12610171   6.592  10.258   4.185  0.3689  0.1566  0.2622
   26TAL   C12710172   6.677  10.201   4.296  0.0423 -0.2837 -1.1067
   26TAL   C12810173   6.808  10.141   4.234 -0.1573 -0.4165 -0.5501
   26TAL   C12910174   6.921  10.129   4.344  0.3263 -0.2484 -0.4082
   26TAL   C13010175   7.037  10.062   4.278 -0.3946  0.2774  0.0175
   27HTM   C13110176   6.409  10.253   4.556 -0.3565  0.0587  0.4821
   27HTM   C13210177   6.491  10.355   4.593 -0.3886  0.0581  0.5553
   27HTM   C13310178   6.549  10.339   4.724 -0.4005 -0.0069  0.5527
   27HTM   C13410179   6.511  10.224   4.786 -0.3776 -0.0559  0.4769
   27HTM    S1410180   6.398  10.127   4.685 -0.3385 -0.0236  0.4030
   28TAL   C13510181   6.643  10.449   4.772 -0.4451 -0.0501 -0.1208
   28TAL   C13610182   6.603  10.546   4.892 -0.1839  0.2591 -0.4198
   28TAL   C13710183   6.523  10.504   5.019 -0.1770 -0.6448  0.5071
   28TAL   C13810184   6.370  10.536   4.999  0.2120 -0.1930  0.8189
   28TAL   C13910185   6.294  10.522   5.138 -0.0708 -0.6984  0.3946
   28TAL   C14010186   6.155  10.582   5.125  0.0132  0.2587  0.0262
   29HTM   C14110187   6.547  10.174   4.916 -0.0809 -0.1713 -0.1695
   29HTM   C14210188   6.664  10.179   4.986  0.0193 -0.0550 -0.3436
   29HTM   C14310189   6.650  10.139   5.123  0.2143  0.1758 -0.2568
   29HTM   C14410190   6.523  10.104   5.158  0.2625  0.2354 -0.0168
   29HTM    S1510191   6.410  10.118   5.019  0.0641  0.0029  0.1196
   30TAL   C14510192   6.775  10.134   5.211  0.1258 -0.5889 -0.3219
   30TAL   C14610193   6.818  10.265   5.267  0.1809 -0.0244  0.7727
   30TAL   C14710194   6.715  10.365   5.321 -0.1509  0.0724  0.2930
   30TAL   C14810195   6.772  10.500   5.363 -0.4268 -0.7737 -0.4611
   30TAL   C14910196   6.873  10.573   5.277  0.0760 -0.1370 -0.1039
   30TAL   C15010197   6.816  10.682   5.188  0.4221  0.0160  0.4860
   31HTM   C15110198   6.458  10.070   5.279 -0.1649  0.3116  0.0600
   31HTM   C15210199   6.518  10.009   5.384 -0.0465  0.6997  0.2210
   31HTM   C15310200   6.426   9.962   5.485  0.0250  0.5585  0.2203
   31HTM   C15410201   6.296   9.987   5.456 -0.0389  0.0627  0.0586
   31HTM    S1610202   6.278  10.074   5.298 -0.1955 -0.2669 -0.1064
   32TAL   C15510203   6.464   9.884   5.611 -0.0192 -1.2025  0.0416
   32TAL   C15610204   6.593   9.919   5.686 -0.3896  0.4130 -0.4465
   32TAL   C15710205   6.635   9.817   5.793 -0.0487 -0.4780 -0.1137
   32TAL   C15810206   6.545   9.791   5.915 -0.1569  0.0148 -0.0452
   32TAL   C15910207   6.609   9.670   5.982  0.4463 -0.7684  0.4548
   32TAL   C16010208   6.561   9.630   6.123 -0.3834 -0.2792  0.7239
   33HTM   C16110209   6.167   9.935   5.510  0.0262 -0.5358  0.1459
   33HTM   C16210210   6.144   9.863   5.624  0.0012 -0.7533  0.0033
   33HTM   C16310211   6.005   9.830   5.645 -0.0188 -0.6903 -0.0284
   33HTM   C16410212   5.922   9.877   5.547 -0.0089 -0.4249  0.0902
   33HTM    S1710213   6.014   9.967   5.421  0.0268 -0.2323  0.2524
   34TAL   C16510214   5.970   9.740   5.769  0.3887 -0.0649  0.2800
   34TAL   C16610215   5.939   9.786   5.905  0.7184  0.7918 -0.2643
   34TAL   C16710216   6.071   9.815   5.973 -0.2745 -0.1563 -0.4803
   34TAL   C16810217   6.053   9.892   6.105 -0.2557 -0.6840  0.0055
   34TAL   C16910218   5.951   9.862   6.206  0.3849 -0.2391  0.2117
   34TAL   C17010219   5.949   9.975   6.310  0.1639 -0.1468  0.1986
   35HTM   C17110220   5.783   9.862   5.522 -0.2528  0.0319  0.3880
   35HTM   C17210221   5.699   9.957   5.472 -0.0036  0.0036 -0.0947
   35HTM   C17310222   5.560   9.917   5.470 -0.0122  0.0560 -0.6399
   35HTM   C17410223   5.539   9.791   5.518 -0.2677  0.1244 -0.5733
   35HTM    S1810224   5.693   9.713   5.570 -0.5194  0.1278  0.1894
   36TAL   C17510225   5.457  10.009   5.403  0.4491  0.4160  0.1698
   36TAL   C17610226   5.364  10.084   5.491  0.1322  0.3776 -0.0901
   36TAL   C17710227   5.236  10.112   5.412 -0.4895  0.2715  0.4923
   36TAL   C17810228   5.150  10.210   5.484  0.1442 -0.2355 -0.2752
   36TAL   C17910229   5.017  10.231   5.411 -0.2409 -0.5021 -0.0464
   36TAL   C18010230   4.927  10.336   5.487  0.1736 -0.3522  0.3748
   37HTM   C18110231   5.414   9.715   5.532 -0.0336  0.5570  0.6372
   37HTM   C18210232   5.291   9.768   5.554  0.0665  0.6746  0.9160
   37HTM   C18310233   5.192   9.672   5.594 -0.0601  0.6870  0.6332
   37HTM   C18410234   5.240   9.544   5.602 -0.2569  0.5788  0.1390
   37HTM    S1910235   5.415   9.537   5.560 -0.2975  0.4518 -0.0090
   38TAL   C18510236   5.048   9.717   5.613 -0.0090  0.2955 -0.2758
   38TAL   C18610237   4.977   9.689   5.745 -0.0454 -0.0456  0.2196
   38TAL   C18710238   5.050   9.731   5.868 -0.7978 -0.6853  0.2564
   38TAL   C18810239   4.982   9.666   5.991  0.3883 -0.4747  0.7268
   38TAL   C18910240   4.845   9.711   6.025 -0.3174 -0.0480 -0.0987
   38TAL   C19010241   4.827   9.855   6.071 -0.1171  0.2867 -0.0970
   39HTM   C19110242   5.171   9.421   5.637  0.1018  0.0115 -0.4179
   39HTM   C19210243   5.212   9.306   5.699  0.0865  0.0803 -0.2785
   39HTM   C19310244   5.116   9.199   5.689 -0.0417  0.1607  0.0768
   39HTM   C19410245   5.003   9.232   5.620 -0.1245  0.1533  0.2086
   39HTM    S2010246   5.009   9.402   5.562 -0.0459  0.0432 -0.1088
   40TAL   C19510247   5.155   9.060   5.745 -0.2544 -0.2010 -0.0349
   40TAL   C19610248   5.173   9.067   5.896  0.4850 -0.3904 -0.0164
   40TAL   C19710249   5.232   8.944   5.969  0.3466 -0.1716 -0.4866
   40TAL   C19810250   5.366   8.898   5.918  0.7234 -0.2754  0.1988
   40TAL   C19910251   5.474   9.008   5.921  0.4346 -0.1491  0.0157
   40TAL   C20010252   5.606   8.966   5.868 -0.5167  0.2134  0.0834
   41HTM   C20110253   4.885   9.160   5.577 -0.2701 -0.1683  0.5957
   41HTM   C20210254   4.769   9.222   5.539 -0.4811 -0.2321  1.1232
   41HTM   C20310255   4.675   9.135   5.475 -0.5190 -0.1782  1.1058
   41HTM   C20410256   4.718   9.006   5.464 -0.3374 -0.0734  0.5655
   41HTM    S2110257   4.883   8.985   5.534 -0.1020 -0.0341  0.0321
   42TAL   C20510258   4.540   9.197   5.414  0.1816 -0.2895 -0.5064
   42TAL   C20610259   4.499   9.341   5.450  0.8141  0.4090  0.2920
   42TAL   C20710260   4.568   9.464   5.386  0.5115 -0.4902 -0.3859
   42TAL   C20810261   4.594   9.481   5.239 -0.0763 -0.6149 -0.0501
   42TAL   C20910262   4.474   9.468   5.148 -0.2617  0.4209 -0.1488
   42TAL   C21010263   4.530   9.434   5.013  0.9008 -0.2678 -0.2500
   43HTM   C21110264   4.661   8.885   5.409  0.2583 -0.2549 -0.2002
   43HTM   C21210265   4.699   8.757   5.436  0.5512 -0.2699 -0.6628
   43HTM   C21310266   4.623   8.657   5.366  0.6583 -0.1965 -0.8836
   43HTM   C21410267   4.526   8.709   5.285  0.4470 -0.1259 -0.5896
   43HTM    S2210268   4.525   8.890   5.291  0.0941 -0.1460 -0.0065
   44TAL   C21510269   4.649   8.508   5.405  0.1398 -0.0735  0.8493
   44TAL   C21610270   4.765   8.438   5.334 -0.3110 -0.0089  0.3759
   44TAL   C21710271   4.742   8.289   5.305 -0.4100  0.6096  0.3297
   44TAL   C21810272   4.620   8.254   5.221 -0.2850  0.5054 -0.1937
   44TAL   C21910273   4.619   8.297   5.080  0.2397  0.0494 -0.3364
   44TAL   C22010274   4.509   8.224   5.002  0.4561  0.2967 -0.7496
   45HTM   C22110275   4.444   8.643   5.183 -0.1788  0.2275 -0.0849
   45HTM   C22210276   4.433   8.686   5.054  0.1805 -0.1349 -0.2415
   45HTM   C22310277   4.339   8.611   4.975  0.3600 -0.3228 -0.2759
   45HTM   C22410278   4.279   8.509   5.044  0.1377 -0.1040 -0.1458
   45HTM    S2310279   4.337   8.502   5.215 -0.3194  0.3607  0.0318
   46TAL   C22510280   4.310   8.651   4.835 -0.1723 -0.0243  0.7759
   46TAL   C22610281   4.421   8.673   4.734 -0.0074 -0.3302  0.1454
   46TAL   C22710282   4.499   8.561   4.675 -0.0308 -0.1511  0.9648
   46TAL   C22810283   4.607   8.615   4.579  0.2150 -0.4537 -0.2449
   46TAL   C22910284   4.679   8.514   4.495  0.2386  0.0893  0.1341
   46TAL   C23010285   4.819   8.566   4.469  0.4917 -0.4607  0.2621
   47HTM   C23110286   4.186   8.408   4.999 -0.0925  0.0530 -0.0951
   47HTM   C23210287   4.074   8.366   5.064 -0.3884  0.3719 -0.3972
   47HTM   C23310288   3.991   8.277   4.986 -0.2582  0.3381 -0.4981
   47HTM   C23410289   4.040   8.251   4.862  0.1370 -0.0065 -0.2726
   47HTM    S2410290   4.196   8.337   4.833  0.3769 -0.3173  0.0876
   48TAL   C23510291   3.886   8.195   5.050  0.0947  0.1701  0.2360
   48TAL   C23610292   3.810   8.090   4.978  0.3037 -1.1018  0.1285
   48TAL   C23710293   3.679   8.052   5.044  0.3898 -0.0327  0.2905
   48TAL   C23810294   3.624   7.919   4.994  0.1221  0.2405 -0.2837
   48TAL   C23910295   3.492   7.868   5.057 -0.6523  0.1701 -0.2670
   48TAL   C24010296   3.438   7.746   4.980  0.3695  0.1466  0.0952
    1HTM     C110297   4.487   0.939   6.226 -0.4679  0.3273  0.1731
    1HTM     C210298   4.381   0.954   6.310 -0.5932  0.4548 -0.0083
    1HTM     C310299   4.368   1.087   6.365 -0.7083  0.5539 -0.2713
    1HTM     C410300   4.465   1.173   6.323 -0.6706  0.5019 -0.2901
    1HTM     S110301   4.581   1.092   6.210 -0.4854  0.3224  0.0247
    2TAL     C510302   4.258   1.116   6.469  0.0833 -0.5796 -1.0070
    2TAL     C610303   4.162   1.011   6.532 -0.1725 -0.3630  0.3779
    2TAL     C710304   4.221   0.905   6.620  0.1214  0.6120 -0.1290
    2TAL     C810305   4.134   0.789   6.654  0.1756  0.2320 -0.0338
    2TAL     C910306   4.191   0.692   6.751 -0.0618  0.2844 -0.4107
    2TAL    C1010307   4.080   0.605   6.798 -0.5014  0.3517  0.3524
    3HTM    C1110308   4.491   1.310   6.365  0.0121  0.0990  0.1916
    3HTM    C1210309   4.403   1.401   6.416  0.1991  0.3219  0.1173
    3HTM    C1310310   4.460   1.533   6.433  0.4494  0.2377 -0.0553
    3HTM    C1410311   4.590   1.542   6.395  0.4536 -0.0495 -0.1130
    3HTM     S210312   4.653   1.384   6.334  0.1389 -0.2372  0.0486
    4TAL    C1510313   4.378   1.646   6.497 -0.1054 -0.6527  0.4071
    4TAL    C1610314   4.242   1.678   6.425 -0.1578 -0.6123  0.5081
    4TAL    C1710315   4.243   1.685   6.270  0.1405 -0.2742  0.0934
    4TAL    C1810316   4.337   1.788   6.203 -0.0849 -0.1434 -0.0259
    4TAL    C1910317   4.372   1.738   6.064 -0.0724  0.3515  0.5674
    4TAL    C2010318   4.491   1.651   6.055 -0.0970  0.7922 -0.2588
    5HTM    C2110319   4.684   1.648   6.396 -0.0716  0.2057  0.0042
    5HTM    C2210320   4.661   1.783   6.393  0.1698  0.2388 -0.5488
    5HTM    C2310321   4.781   1.862   6.377  0.3216 -0.0386 -0.7849
    5HTM    C2410322   4.895   1.787   6.367  0.1966 -0.2833 -0.4117
    5HTM     S310323   4.860   1.611   6.378 -0.1258 -0.1815  0.2724
    6TAL    C2510324   4.764   2.018   6.368 -0.5112  0.5288 -0.3476
    6TAL    C2610325   4.629   2.081   6.327  0.0499  0.1380 -0.1633
    6TAL    C2710326   4.609   2.116   6.182  0.1034  0.4740  0.3386
    6TAL    C2810327   4.466   2.147   6.145  0.4031 -0.0333 -0.1322
    6TAL    C2910328   4.415   2.284   6.178 -0.1335 -0.4050  0.6164
    6TAL    C3010329   4.264   2.289   6.162 -0.3830 -0.8086 -0.6365
    7HTM    C3110330   5.036   1.827   6.347  0.1255 -0.2793 -0.2978
    7HTM    C3210331   5.143   1.746   6.371  0.2053 -0.2565 -0.5753
    7HTM    C3310332   5.270   1.812   6.358  0.1423 -0.1059 -0.4158
    7HTM    C3410333   5.260   1.944   6.325  0.0144 -0.0137 -0.0173
    7HTM     S410334   5.088   1.995   6.307 -0.0369 -0.1109  0.1901
    8TAL    C3510335   5.401   1.737   6.391  0.2185 -0.5137  0.3326
    8TAL    C3610336   5.394   1.599   6.465 -0.5103  0.0657  0.1640
    8TAL    C3710337   5.538   1.541   6.491  0.2386 -0.2447  0.3691
    8TAL    C3810338   5.612   1.501   6.364 -0.0183 -0.2491 -0.1387
    8TAL    C3910339   5.743   1.424   6.378 -0.3591  0.6882 -0.0781
    8TAL    C4010340   5.853   1.469   6.471  0.3711 -0.3161  0.1621
    9HTM    C4110341   5.356   2.044   6.308  0.0224  0.0781 -0.3725
    9HTM    C4210342   5.488   2.029   6.281 -0.0236  0.0458 -0.5815
    9HTM    C4310343   5.564   2.151   6.287  0.0453  0.0015 -0.5405
    9HTM    C4410344   5.488   2.261   6.319  0.1437  0.0004 -0.3002
    9HTM     S510345   5.315   2.217   6.344  0.1576  0.0554 -0.1056
   10TAL    C4510346   5.719   2.147   6.274 -0.0966 -0.0798  1.3355
   10TAL    C4610347   5.786   2.080   6.146 -0.1676  0.2272  0.3539
   10TAL    C4710348   5.767   1.928   6.116  0.0715 -0.0547  0.3717
   10TAL    C4810349   5.823   1.823   6.222  0.5378  0.2470  0.4001
   10TAL    C4910350   5.979   1.828   6.244 -0.3265 -0.1510  0.4955
   10TAL    C5010351   6.032   1.731   6.350  0.1557  0.0123 -0.0674
   11HTM    C5110352   5.514   2.402   6.346 -0.2638  0.0611 -0.1748
   11HTM    C5210353   5.630   2.472   6.358 -0.1523 -0.1041 -0.2739
   11HTM    C5310354   5.611   2.610   6.394  0.0825 -0.1183 -0.0901
   11HTM    C5410355   5.480   2.645   6.409  0.1502  0.0363  0.1493
   11HTM     S610356   5.370   2.505   6.379 -0.0788  0.2130  0.1613
   12TAL    C5510357   5.729   2.704   6.432 -0.2003  0.1772 -0.3603
   12TAL    C5610358   5.858   2.640   6.475 -0.4367  0.0926 -0.2796
   12TAL    C5710359   5.957   2.746   6.520  0.0011  0.2860 -0.2386
   12TAL    C5810360   6.082   2.695   6.599  0.6748 -0.0633 -0.3516
   12TAL    C5910361   6.169   2.600   6.521  0.4783 -0.3123  0.9386
   12TAL    C6010362   6.282   2.542   6.604 -0.3345  0.8196 -0.5250
   13HTM    C6110363   5.416   2.762   6.466  0.2574  0.0892  0.1645
   13HTM    C6210364   5.438   2.897   6.466  0.1104  0.1136 -0.0887
   13HTM    C6310365   5.342   2.971   6.544 -0.0288  0.1640 -0.3097
   13HTM    C6410366   5.247   2.893   6.603  0.0119  0.1780 -0.2250
   13HTM     S710367   5.271   2.719   6.565  0.2312  0.1283  0.1432
   14TAL    C6510368   5.362   3.119   6.558 -0.3608  0.8106 -0.3896
   14TAL    C6610369   5.377   3.208   6.439  0.1815 -0.0059  0.3694
   14TAL    C6710370   5.507   3.247   6.359  0.0702 -0.2149  0.7129
   14TAL    C6810371   5.651   3.246   6.419  0.2042  0.8653  0.0864
   14TAL    C6910372   5.711   3.116   6.444 -0.1046  0.1184  0.2355
   14TAL    C7010373   5.858   3.134   6.482  0.3586 -0.2335  0.3687
   15HTM    C7110374   5.132   2.917   6.693  0.3586  0.3297  0.1266
   15HTM    C7210375   5.108   3.011   6.789 -0.2024  0.8426 -0.5033
   15HTM    C7310376   4.981   2.996   6.854 -0.4475  0.9974 -0.9444
   15HTM    C7410377   4.907   2.891   6.808 -0.0738  0.6025 -0.6510
   15HTM     S810378   4.994   2.802   6.677  0.6227 -0.0001  0.2119
   16TAL    C7510379   4.955   3.103   6.967 -0.5754 -0.4320  0.7432
   16TAL    C7610380   4.820   3.096   7.038  0.1736 -0.4070 -0.5860
   16TAL    C7710381   4.805   3.200   7.148  0.0688 -0.2699 -0.1834
   16TAL    C7810382   4.681   3.200   7.235 -0.1612 -0.1671 -0.6499
   16TAL    C7910383   4.541   3.215   7.174 -0.1192 -0.3715  0.1985
   16TAL    C8010384   4.432   3.243   7.285 -0.7232  0.0110  0.2757
   17HTM    C8110385   4.778   2.831   6.846  0.4987 -0.0145 -0.2090
   17HTM    C8210386   4.659   2.896   6.827  0.7195  0.4784  0.0918
   17HTM    C8310387   4.544   2.811   6.837  0.3984  0.9165  0.1657
   17HTM    C8410388   4.574   2.680   6.863 -0.0672  0.7573 -0.0790
   17HTM     S910389   4.752   2.655   6.877 -0.1370  0.0364 -0.4242
   18TAL    C8510390   4.399   2.857   6.803 -0.5767  0.7736  0.4854
   18TAL    C8610391   4.371   2.998   6.740 -0.0842 -0.1432 -0.0080
   18TAL    C8710392   4.226   3.033   6.748  0.9820 -0.4369  0.5381
   18TAL    C8810393   4.188   3.149   6.653 -0.8336 -0.0040  0.5811
   18TAL    C8910394   4.038   3.189   6.639  0.0782  0.3971  0.5478
   18TAL    C9010395   4.005   3.307   6.553 -0.1472  0.1756  0.4509
   19HTM    C9110396   4.492   2.560   6.872 -0.1705 -0.0358 -0.0326
   19HTM    C9210397   4.538   2.434   6.894  0.0226  0.0907  0.3026
   19HTM    C9310398   4.433   2.336   6.908  0.1781 -0.0824  0.2570
   19HTM    C9410399   4.307   2.388   6.896  0.1035 -0.3410 -0.1134
   19HTM    S1010400   4.312   2.566   6.867 -0.1707 -0.3862 -0.4353
   20TAL    C9510401   4.451   2.186   6.929 -0.0796 -0.4433  0.6145
   20TAL    C9610402   4.535   2.118   6.832 -0.5270 -0.2848  0.0472
   20TAL    C9710403   4.542   1.972   6.866  0.5385  0.6227  0.0628
   20TAL    C9810404   4.611   1.888   6.765 -0.0609  0.1554 -0.2509
   20TAL    C9910405   4.615   1.735   6.785 -1.0387  0.1822  1.0127
   20TAL   C10010406   4.661   1.679   6.915  0.0237  0.1613 -0.0643
   21HTM   C10110407   4.179   2.322   6.899  0.4692 -0.0757  0.0247
   21HTM   C10210408   4.075   2.359   6.819  0.5414  0.1155  0.0162
   21HTM   C10310409   3.953   2.286   6.846  0.3732  0.4194  0.0873
   21HTM   C10410410   3.965   2.193   6.945  0.1720  0.4598  0.1499
   21HTM    S1110411   4.132   2.191   7.014  0.1795  0.1146  0.1239
   22TAL   C10510412   3.828   2.315   6.762  1.2677  0.1473 -0.7844
   22TAL   C10610413   3.817   2.402   6.638  0.6778  0.2341  0.2778
   22TAL   C10710414   3.899   2.387   6.513 -0.0637 -0.2676  0.5019
   22TAL   C10810415   3.870   2.471   6.387 -0.0101 -1.0619  0.2980
   22TAL   C10910416   3.976   2.435   6.282 -0.6596  0.5973 -0.1663
   22TAL   C11010417   3.985   2.541   6.174  0.6545  0.0074  0.5362
   23HTM   C11110418   3.869   2.095   6.995  0.1376 -0.0926 -0.2193
   23HTM   C11210419   3.819   2.081   7.121  0.1574  0.3246 -0.1638
   23HTM   C11310420   3.736   1.965   7.137 -0.0203  0.4992  0.1769
   23HTM   C11410421   3.722   1.890   7.024 -0.1756  0.2152  0.3809
   23HTM    S1210422   3.815   1.961   6.886 -0.1088 -0.2987  0.1575
   24TAL   C11510423   3.675   1.941   7.279  0.0877 -0.2375  0.8495
   24TAL   C11610424   3.557   1.845   7.300  0.4244  0.3111  0.0959
   24TAL   C11710425   3.439   1.908   7.366  0.2684 -0.1442 -0.5932
   24TAL   C11810426   3.311   1.933   7.285 -0.1444 -0.4706 -0.6019
   24TAL   C11910427   3.187   1.962   7.371 -0.4100 -0.9994 -0.1355
   24TAL   C12010428   3.071   1.961   7.281  0.1199  0.1519 -0.1145
   25HTM   C12110429   3.639   1.773   6.992  0.1994 -0.0666 -0.5371
   25HTM   C12210430   3.506   1.785   6.968  0.1442 -0.1099 -0.2522
   25HTM   C12310431   3.435   1.659   6.973  0.1360 -0.0889  0.2394
   25HTM   C12410432   3.514   1.552   7.000  0.1849 -0.0298  0.3296
   25HTM    S1310433   3.686   1.601   7.022  0.2456  0.0044 -0.2034
   26TAL   C12510434   3.287   1.669   6.979  0.5240  0.4382 -0.0636
   26TAL   C12610435   3.219   1.700   6.845  0.1891  0.1424  0.2808
   26TAL   C12710436   3.189   1.590   6.747  0.2029 -0.2951 -0.5164
   26TAL   C12810437   3.067   1.505   6.764  0.5635 -0.1562  0.3416
   26TAL   C12910438   2.931   1.574   6.788 -0.6495 -0.0486 -0.3186
   26TAL   C13010439   2.864   1.645   6.676 -0.4573 -0.1933  0.5887
   27HTM   C13110440   3.482   1.414   7.008  0.4053 -0.0102 -0.4055
   27HTM   C13210441   3.569   1.318   7.051  0.2731 -0.1977 -0.5534
   27HTM   C13310442   3.507   1.192   7.080  0.0865 -0.1347 -0.6812
   27HTM   C13410443   3.372   1.191   7.058  0.0771  0.1008 -0.6307
   27HTM    S1410444   3.313   1.351   7.000  0.3043  0.2626 -0.4159
   28TAL   C13510445   3.596   1.080   7.146 -0.3837 -0.2972 -0.1258
   28TAL   C13610446   3.670   1.102   7.277  0.8915 -0.0774 -0.7595
   28TAL   C13710447   3.582   1.151   7.399 -0.9351  0.0076  0.4210
   28TAL   C13810448   3.653   1.204   7.521 -0.3359 -0.7666 -0.5511
   28TAL   C13910449   3.555   1.261   7.626  0.3768 -0.1452 -0.0846
   28TAL   C14010450   3.460   1.380   7.589 -0.1602 -0.3643 -0.2196
   29HTM   C14110451   3.276   1.082   7.084  0.0211 -0.1098 -0.3549
   29HTM   C14210452   3.153   1.094   7.142  0.0160  0.0359 -0.3955
   29HTM   C14310453   3.087   0.968   7.164 -0.0832  0.1062 -0.2918
   29HTM   C14410454   3.160   0.860   7.124 -0.1536  0.0141 -0.1711
   29HTM    S1510455   3.319   0.909   7.055 -0.1000 -0.1701 -0.1804
   30TAL   C14510456   2.960   0.953   7.248 -0.0876 -0.2130 -0.1484
   30TAL   C14610457   2.834   0.950   7.162 -0.3068 -0.9865 -0.0589
   30TAL   C14710458   2.706   0.957   7.244 -0.2016 -0.1436  0.4725
   30TAL   C14810459   2.597   0.868   7.189  0.1254  0.2947 -0.3080
   30TAL   C14910460   2.451   0.890   7.220  0.3228 -0.1963  0.5498
   30TAL   C15010461   2.394   1.020   7.154 -0.5664  0.7858 -0.3665
   31HTM   C15110462   3.134   0.714   7.135 -0.1492  0.2441  0.1243
   31HTM   C15210463   3.019   0.650   7.099  0.0206  0.1570 -0.2673
   31HTM   C15310464   3.027   0.507   7.108  0.1539  0.1557 -0.4048
   31HTM   C15410465   3.148   0.461   7.151  0.0855  0.2419 -0.1178
   31HTM    S1610466   3.262   0.597   7.184 -0.1541  0.3320  0.3514
   32TAL   C15510467   2.897   0.424   7.077 -0.3677 -0.1022  0.0732
   32TAL   C15610468   2.768   0.490   7.137 -0.1496  0.0855 -0.1318
   32TAL   C15710469   2.632   0.430   7.113  0.1837  0.2508  0.2013
   32TAL   C15810470   2.533   0.493   7.199  0.1370  0.1187 -0.1875
   32TAL   C15910471   2.388   0.455   7.169 -1.1473 -0.1307 -0.5161
   32TAL   C16010472   2.276   0.527   7.249  0.1244 -0.2438 -0.3078
   33HTM   C16110473   3.189   0.326   7.177 -0.0792  0.2358 -0.0437
   33HTM   C16210474   3.320   0.288   7.182 -0.0465  0.3024 -0.3335
   33HTM   C16310475   3.338   0.146   7.200  0.0663  0.2995 -0.4754
   33HTM   C16410476   3.222   0.076   7.208  0.1192  0.2306 -0.2939
   33HTM    S1710477   3.078   0.184   7.193  0.0303  0.1636  0.0734
   34TAL   C16510478   3.478   0.088   7.190  0.2560  0.2389 -0.0466
   34TAL   C16610479   3.515   0.042   7.042  0.2739 -1.0229  0.8130
   34TAL   C16710480   3.635  -0.050   7.033 -0.1583  0.2712  0.2022
   34TAL   C16810481   3.694  -0.073   6.897 -0.8019 -0.4267  0.1905
   34TAL   C16910482   3.805  -0.172   6.906 -0.1834  0.3743 -0.0296
   34TAL   C17010483   3.877  -0.220   6.782  0.0541  0.1993 -0.1214
   35HTM   C17110484   3.198  -0.067   7.203  0.6039  0.2946 -0.3944
   35HTM   C17210485   3.073  -0.119   7.196  0.4637  0.5975 -0.1454
   35HTM   C17310486   3.069  -0.263   7.196  0.0993  0.6027  0.1707
   35HTM   C17410487   3.193  -0.321   7.203 -0.0386  0.3047  0.1631
   35HTM    S1810488   3.324  -0.197   7.210  0.2837 -0.0079 -0.2475
   36TAL   C17510489   2.930  -0.330   7.188  0.1295 -0.1111 -0.1319
   36TAL   C17610490   2.865  -0.319   7.051  0.1541  0.1325  0.3896
   36TAL   C17710491   2.739  -0.408   7.042  0.4538 -0.7325 -0.0579
   36TAL   C17810492   2.682  -0.394   6.902 -0.1813 -0.0925  0.0322
   36TAL   C17910493   2.590  -0.502   6.835 -0.2197 -0.2574 -0.1647
   36TAL   C18010494   2.662  -0.630   6.813  0.2075  0.1982  0.2616
   37HTM   C18110495   3.231  -0.462   7.201 -0.1679 -0.1996 -0.2224
   37HTM   C18210496   3.166  -0.560   7.133  0.3269 -0.4039 -0.4070
   37HTM   C18310497   3.238  -0.685   7.128  0.6986 -0.2017 -0.1478
   37HTM   C18410498   3.358  -0.682   7.192  0.4871  0.1563  0.2347
   37HTM    S1910499   3.390  -0.520   7.265 -0.2031  0.2672  0.2975
   38TAL   C18510500   3.181  -0.815   7.065  0.2118 -0.2817 -0.0250
   38TAL   C18610501   3.035  -0.835   7.024  0.0890  0.3976 -0.2642
   38TAL   C18710502   2.935  -0.820   7.144 -0.8155 -0.0496 -0.3919
   38TAL   C18810503   2.789  -0.806   7.115 -1.0685  0.2135 -0.0915
   38TAL   C18910504   2.715  -0.770   7.244 -0.1501 -0.0783  0.4889
   38TAL   C19010505   2.565  -0.767   7.236  0.2391 -0.3108 -0.0349
   39HTM   C19110506   3.459  -0.784   7.211  0.0188 -0.2565  0.0033
   39HTM   C19210507   3.466  -0.881   7.307  0.0585 -0.1526  0.1051
   39HTM   C19310508   3.582  -0.965   7.297  0.2726  0.1054  0.4048
   39HTM   C19410509   3.664  -0.932   7.193  0.3960  0.1977  0.5309
   39HTM    S2010510   3.600  -0.792   7.100  0.2503 -0.0356  0.2793
   40TAL   C19510511   3.598  -1.080   7.396 -0.1938  0.1924  0.4256
   40TAL   C19610512   3.508  -1.195   7.368  0.2887  0.9170 -0.0375
   40TAL   C19710513   3.524  -1.303   7.476  0.9447  0.3371 -0.3795
   40TAL   C19810514   3.438  -1.420   7.440 -0.0836 -0.4364 -0.1299
   40TAL   C19910515   3.470  -1.534   7.540  0.2876  0.4789 -0.2623
   40TAL   C20010516   3.369  -1.641   7.522  0.0346  0.2825 -0.4677
   41HTM   C20110517   3.781  -0.996   7.151  0.2715 -0.3683  0.2082
   41HTM   C20210518   3.893  -0.938   7.100  0.2649 -0.1884  0.3970
   41HTM   C20310519   3.991  -1.033   7.053  0.3206 -0.0246  0.1822
   41HTM   C20410520   3.953  -1.163   7.068  0.3694 -0.0797 -0.1709
   41HTM    S2110521   3.789  -1.176   7.143  0.3490 -0.3451 -0.2594
   42TAL   C20510522   4.117  -0.990   6.976 -0.3823  0.4526  0.3488
   42TAL   C20610523   4.202  -0.874   7.021  0.1914  0.5033 -0.0690
   42TAL   C20710524   4.345  -0.883   6.973 -0.1199 -0.1482 -0.4445
   42TAL   C20810525   4.424  -0.995   7.043  0.1603 -0.6487 -0.0167
   42TAL   C20910526   4.562  -1.010   6.990 -0.1772 -0.7690  0.3419
   42TAL   C21010527   4.631  -1.119   7.072 -0.2981 -0.6701  0.1497
   43HTM   C21110528   4.029  -1.283   7.033 -0.2087 -0.3921  0.0642
   43HTM   C21210529   3.987  -1.394   6.964  0.0784 -0.5410  0.1295
   43HTM   C21310530   4.087  -1.497   6.956  0.3648 -0.2699  0.1540
   43HTM   C21410531   4.204  -1.466   7.018  0.2955  0.0864  0.1081
   43HTM    S2210532   4.198  -1.302   7.093 -0.1397  0.1062  0.0294
   44TAL   C21510533   4.060  -1.622   6.874  0.1451  0.0028  0.2916
   44TAL   C21610534   3.966  -1.722   6.950  0.3288 -0.2812  0.4238
   44TAL   C21710535   3.907  -1.840   6.873 -1.1747 -0.6050 -0.0180
   44TAL   C21810536   4.007  -1.942   6.830  0.8607  0.3058 -0.4011
   44TAL   C21910537   3.936  -2.065   6.771 -0.2463  1.0103  0.5718
   44TAL   C22010538   4.033  -2.147   6.684  0.1471 -0.5447  0.1827
   45HTM   C22110539   4.334  -1.538   7.019  0.0370  0.1053  0.4948
   45HTM   C22210540   4.454  -1.488   7.059  0.1054 -0.0854  0.5262
   45HTM   C22310541   4.564  -1.579   7.038  0.0393 -0.0679  0.1075
   45HTM   C22410542   4.528  -1.697   6.981 -0.0798  0.1356 -0.2429
   45HTM    S2310543   4.351  -1.704   6.950 -0.1178  0.3228 -0.0701
   46TAL   C22510544   4.712  -1.531   7.053  0.5016 -0.3592  0.1365
   46TAL   C22610545   4.751  -1.497   7.195 -0.6102  0.2970 -0.0061
   46TAL   C22710546   4.768  -1.617   7.293  0.1926 -0.3477  0.7170
   46TAL   C22810547   4.912  -1.654   7.333  0.0438  0.0502  0.9691
   46TAL   C22910548   5.001  -1.557   7.407  0.1901  0.2044  0.2572
   46TAL   C23010549   5.145  -1.585   7.377  1.2250  0.6258 -0.2756
   47HTM   C23110550   4.600  -1.823   6.959  0.0882 -0.1505 -0.1650
   47HTM   C23210551   4.546  -1.941   6.918  0.0281 -0.0548 -0.3648
   47HTM   C23310552   4.644  -2.044   6.893 -0.0479 -0.1647 -0.2105
   47HTM   C23410553   4.772  -2.003   6.916 -0.0457 -0.3443  0.1062
   47HTM    S2410554   4.779  -1.831   6.970  0.0529 -0.3887  0.2352
   48TAL   C23510555   4.612  -2.193   6.849  0.4084 -0.2846  0.1026
   48TAL   C23610556   4.714  -2.309   6.838 -0.5968  0.9008  0.3749
   48TAL   C23710557   4.788  -2.361   6.956 -0.1264  0.4393  0.4427
   48TAL   C23810558   4.885  -2.481   6.933  0.0502  0.5881  0.0398
   48TAL   C23910559   4.809  -2.601   6.874  0.0381 -0.2419 -0.0022
   48TAL   C24010560   4.874  -2.730   6.878 -0.4152 -0.1394 -0.4553
    1HTM     C110561   4.475   8.123   7.772  0.1772 -0.0848  0.1762
    1HTM     C210562   4.366   8.203   7.796  0.0896 -0.3238  0.5865
    1HTM     C310563   4.392   8.343   7.775 -0.2201 -0.2422  0.7586
    1HTM     C410564   4.519   8.371   7.737 -0.3686  0.0590  0.4792
    1HTM     S110565   4.618   8.220   7.722 -0.1266  0.2644 -0.0262
    2TAL     C510566   4.281   8.448   7.804 -0.0660  0.3729  0.2802
    2TAL     C610567   4.192   8.429   7.925  0.1594  0.2240 -0.1745
    2TAL     C710568   4.081   8.319   7.929  0.0999  0.3974 -0.1426
    2TAL     C810569   3.978   8.331   7.814 -0.0153  0.1551  0.0564
    2TAL     C910570   3.918   8.467   7.784 -0.4693  0.0061  0.1678
    2TAL    C1010571   3.817   8.468   7.669  0.2042 -0.2546  0.3299
    3HTM    C1110572   4.590   8.492   7.705 -0.5208  0.0285  0.2193
    3HTM    C1210573   4.722   8.494   7.670 -0.4208 -0.4849  0.5581
    3HTM    C1310574   4.767   8.622   7.621  0.2043 -0.6580  0.6762
    3HTM    C1410575   4.670   8.717   7.619  0.5808 -0.2765  0.4274
    3HTM     S210576   4.512   8.653   7.679  0.1720  0.3360  0.0218
    4TAL    C1510577   4.916   8.652   7.576  0.6713 -0.2673 -0.2390
    4TAL    C1610578   5.029   8.561   7.630 -0.5107  0.3686 -0.0810
    4TAL    C1710579   5.019   8.416   7.599 -0.2100 -0.4700  0.5170
    4TAL    C1810580   5.146   8.340   7.641  0.2765  0.0457 -0.0616
    4TAL    C1910581   5.125   8.197   7.601  0.7111 -0.9388  0.4312
    4TAL    C2010582   5.235   8.104   7.632 -0.0230  0.4256  0.1961
    5HTM    C2110583   4.660   8.858   7.589  0.1314 -0.1312  0.1209
    5HTM    C2210584   4.549   8.931   7.558 -0.0675 -0.1955  0.6661
    5HTM    C2310585   4.570   9.073   7.560 -0.2382 -0.1745  0.9258
    5HTM    C2410586   4.697   9.109   7.593 -0.1696 -0.0938  0.5787
    5HTM     S310587   4.801   8.965   7.624  0.1180 -0.0379 -0.1086
    6TAL    C2510588   4.462   9.183   7.524 -0.1360  0.3513 -0.4326
    6TAL    C2610589   4.363   9.145   7.421  0.1352 -0.0948  0.5096
    6TAL    C2710590   4.249   9.241   7.397  0.1231  0.1845 -0.0228
    6TAL    C2810591   4.146   9.190   7.296  0.5807 -0.6402 -0.2991
    6TAL    C2910592   4.008   9.255   7.312 -0.1148  0.1401  0.3936
    6TAL    C3010593   3.903   9.209   7.208  0.0615 -0.3654  0.5335
    7HTM    C3110594   4.762   9.243   7.614  0.1007  0.1245 -0.0246
    7HTM    C3210595   4.698   9.354   7.659  0.0956  0.2093 -0.2429
    7HTM    C3310596   4.786   9.457   7.709  0.0856  0.2748 -0.3603
    7HTM    C3410597   4.918   9.423   7.702  0.0833  0.2399 -0.2316
    7HTM     S410598   4.941   9.258   7.631  0.0935  0.1207  0.0502
    8TAL    C3510599   4.726   9.578   7.768 -0.0999 -0.1073 -0.3084
    8TAL    C3610600   4.575   9.592   7.775 -0.6846  0.5238  0.4481
    8TAL    C3710601   4.497   9.604   7.644 -0.9899 -0.8147 -0.6720
    8TAL    C3810602   4.348   9.582   7.666  0.3109 -0.3433  0.4777
    8TAL    C3910603   4.273   9.558   7.533 -0.4608 -0.7746  0.0361
    8TAL    C4010604   4.125   9.556   7.555 -0.7599 -0.3244  0.2070
    9HTM    C4110605   5.050   9.490   7.723 -0.3202 -0.1895  0.5165
    9HTM    C4210606   5.173   9.441   7.693 -0.3603 -0.5648  0.9539
    9HTM    C4310607   5.282   9.530   7.725 -0.2477 -0.6210  0.7379
    9HTM    C4410608   5.241   9.648   7.781 -0.1217 -0.2886  0.1354
    9HTM     S510609   5.061   9.655   7.796 -0.1359  0.1244 -0.2089
   10TAL    C4510610   5.412   9.474   7.700  0.1324  0.2711 -0.2413
   10TAL    C4610611   5.450   9.334   7.750 -0.1076  0.0588  1.2662
   10TAL    C4710612   5.585   9.266   7.719  0.4354  0.2014  0.2894
   10TAL    C4810613   5.625   9.263   7.575 -0.2575  0.1070 -0.0658
   10TAL    C4910614   5.747   9.173   7.558  0.8019  0.6812  0.0967
   10TAL    C5010615   5.888   9.240   7.566 -0.0752 -0.1434 -0.8803
   11HTM    C5110616   5.322   9.765   7.824 -0.2611  0.0046  0.1804
   11HTM    C5210617   5.282   9.895   7.831 -0.2804 -0.0015  0.1826
   11HTM    C5310618   5.390   9.989   7.846 -0.2863  0.0231  0.0744
   11HTM    C5410619   5.513   9.930   7.851 -0.2717  0.0481 -0.0103
   11HTM     S610620   5.502   9.751   7.835 -0.2490  0.0423  0.0405
   12TAL    C5510621   5.366  10.140   7.834  0.5422  0.7600  0.2871
   12TAL    C5610622   5.233  10.179   7.757 -0.0650  0.4474 -0.4108
   12TAL    C5710623   5.225  10.323   7.703 -0.0669  0.1451 -0.0023
   12TAL    C5810624   5.095  10.351   7.624 -0.6491 -0.0931 -0.6722
   12TAL    C5910625   5.077  10.498   7.584 -0.2411 -0.1503  0.1041
   12TAL    C6010626   4.965  10.517   7.483  0.3017 -0.2893 -0.3774
   13HTM    C6110627   5.647   9.985   7.844  0.1140 -0.4320 -0.1844
   13HTM    C6210628   5.759   9.913   7.813  0.1419 -0.2727 -0.4568
   13HTM    C6310629   5.877   9.994   7.794  0.0360 -0.1260 -0.4880
   13HTM    C6410630   5.855  10.128   7.810 -0.0724 -0.1734 -0.2399
   13HTM     S710631   5.682  10.162   7.851 -0.0492 -0.4088  0.0554
   14TAL    C6510632   6.006   9.924   7.748  0.1466  0.1869  0.3381
   14TAL    C6610633   6.122   9.912   7.836  0.3311  0.0569  0.1827
   14TAL    C6710634   6.257   9.848   7.782  1.3068  0.1708  0.5696
   14TAL    C6810635   6.355   9.842   7.896  0.4529 -0.3826  0.3375
   14TAL    C6910636   6.485   9.788   7.842  0.4457 -0.2835 -0.9255
   14TAL    C7010637   6.585   9.780   7.950  0.0089  0.1402 -0.0766
   15HTM    C7110638   5.943  10.246   7.817 -0.4246 -0.0210 -0.6568
   15HTM    C7210639   6.078  10.245   7.795 -0.5229 -0.2195 -1.2591
   15HTM    C7310640   6.139  10.375   7.806 -0.2277 -0.3624 -1.2009
   15HTM    C7410641   6.051  10.475   7.837  0.0950 -0.2728 -0.5544
   15HTM     S810642   5.883  10.412   7.854  0.0512  0.0013  0.0357
   16TAL    C7510643   6.294  10.384   7.811  0.1758 -0.2446  0.0067
   16TAL    C7610644   6.386  10.259   7.816 -0.2749 -0.5936 -0.1214
   16TAL    C7710645   6.536  10.277   7.798  0.7155 -0.6764 -0.5821
   16TAL    C7810646   6.607  10.140   7.813  0.3495  0.0556  0.3182
   16TAL    C7910647   6.758  10.146   7.794  0.4470  0.4978  0.8425
   16TAL    C8010648   6.834  10.016   7.804 -0.5023  0.6327 -0.0571
   17HTM    C8110649   6.070  10.619   7.857  0.5425 -0.1613  0.0820
   17HTM    C8210650   6.071  10.694   7.971  0.8757  0.0147 -0.0346
   17HTM    C8310651   6.091  10.834   7.947  0.4320  0.0308 -0.3443
   17HTM    C8410652   6.106  10.867   7.816 -0.2400 -0.1328 -0.4636
   17HTM     S910653   6.095  10.721   7.710 -0.3650 -0.3214 -0.1922
   18TAL    C8510654   6.091  10.930   8.065  0.0029  0.4302  0.2022
   18TAL    C8610655   6.222  10.928   8.149  0.5599 -0.1041  0.3290
   18TAL    C8710656   6.328  11.025   8.100  0.8948  0.0194 -0.1521
   18TAL    C8810657   6.305  11.175   8.106  0.6533  0.5161 -0.5439
   18TAL    C8910658   6.403  11.245   8.020 -1.3781 -0.3711 -0.1377
   18TAL    C9010659   6.399  11.400   8.038 -0.5687  0.7256 -0.3109
   19HTM    C9110660   6.137  10.996   7.756 -0.2823 -0.1850  0.5083
   19HTM    C9210661   6.248  11.030   7.684 -0.0038 -0.5491  0.7653
   19HTM    C9310662   6.262  11.171   7.660  0.1993 -0.6475  0.2854
   19HTM    C9410663   6.161  11.246   7.714  0.0755 -0.3586 -0.3378
   19HTM    S1010664   6.041  11.142   7.800 -0.3099  0.0637 -0.3668
   20TAL    C9510665   6.380  11.226   7.584 -0.0532  0.0502 -0.3335
   20TAL    C9610666   6.520  11.192   7.638  0.5618 -0.0632 -0.6877
   20TAL    C9710667   6.632  11.215   7.539 -0.4147  0.1784 -0.0459
   20TAL    C9810668   6.758  11.142   7.581  0.1412 -0.3050 -0.2946
   20TAL    C9910669   6.854  11.106   7.470 -0.5731  0.6879  0.2192
   20TAL   C10010670   6.978  11.054   7.533 -0.1430  0.6844  0.0238
   21HTM   C10110671   6.151  11.393   7.728 -0.3471 -0.1485 -0.4902
   21HTM   C10210672   6.052  11.446   7.805 -0.2546 -0.2917 -0.2687
   21HTM   C10310673   6.051  11.590   7.807  0.0384 -0.2970  0.3879
   21HTM   C10410674   6.150  11.647   7.732  0.1694 -0.1577  0.6665
   21HTM    S1110675   6.253  11.521   7.653 -0.0684 -0.0081  0.1176
   22TAL   C10510676   5.943  11.666   7.886  0.4233 -0.1908  0.7647
   22TAL   C10610677   5.959  11.791   7.968  0.3009  0.4117  0.0884
   22TAL   C10710678   6.088  11.802   8.037  0.1933 -0.4709 -0.1066
   22TAL   C10810679   6.112  11.944   8.089 -0.6717  0.2053  0.0307
   22TAL   C10910680   6.264  11.967   8.130  0.9193  0.3329 -0.1462
   22TAL   C11010681   6.274  12.094   8.205  0.0490  0.2544  0.5143
   23HTM   C11110682   6.194  11.787   7.714  0.1641  0.1947 -0.1274
   23HTM   C11210683   6.323  11.824   7.693  0.0985  0.2912 -0.3529
   23HTM   C11310684   6.341  11.967   7.681 -0.0622  0.2902 -0.6208
   23HTM   C11410685   6.225  12.038   7.694 -0.1196  0.1927 -0.5997
   23HTM    S1210686   6.084  11.929   7.722  0.0262  0.0940 -0.2370
   24TAL   C11510687   6.480  12.028   7.675 -0.4847  0.1883  0.1164
   24TAL   C11610688   6.597  11.934   7.637 -0.2991  0.4754  0.4376
   24TAL   C11710689   6.728  12.009   7.635 -0.2590  0.6196  0.6994
   24TAL   C11810690   6.841  11.916   7.598 -0.0751  0.2322  0.3678
   24TAL   C11910691   6.968  12.006   7.594  0.7643 -0.0555  0.0339
   24TAL   C12010692   7.078  11.930   7.530 -0.0262  0.6562  0.6915
   25HTM   C12110693   6.204  12.183   7.696  0.3792  0.1846 -0.0153
   25HTM   C12210694   6.286  12.284   7.653  0.0989  0.3424 -0.1802
   25HTM   C12310695   6.220  12.412   7.647 -0.1731  0.2103 -0.0827
   25HTM   C12410696   6.089  12.409   7.684 -0.0998 -0.0483  0.1567
   25HTM    S1310697   6.038  12.243   7.731  0.3212 -0.1459  0.2788
   26TAL   C12510698   6.298  12.525   7.584 -0.5635  0.3743  0.8788
   26TAL   C12610699   6.448  12.513   7.550  0.1221 -0.9938 -0.1778
   26TAL   C12710700   6.511  12.645   7.510  0.6445 -0.2189 -0.2528
   26TAL   C12810701   6.665  12.639   7.503  0.2741  0.1095  0.1244
   26TAL   C12910702   6.730  12.751   7.434  0.0256  0.4799 -0.2704
   26TAL   C13010703   6.879  12.736   7.443 -0.0610 -0.3796 -0.0493
   27HTM   C13110704   5.990  12.517   7.704  0.2305  0.0255  0.0719
   27HTM   C13210705   5.866  12.517   7.762  0.4883 -0.0882  0.6266
   27HTM   C13310706   5.801  12.646   7.758  0.3481 -0.1508  0.9086
   27HTM   C13410707   5.875  12.743   7.698 -0.0162 -0.0844  0.5690
   27HTM    S1410708   6.034  12.679   7.640 -0.2118  0.0628 -0.1389
   28TAL   C13510709   5.661  12.668   7.808 -0.3621 -0.1104  0.4270
   28TAL   C13610710   5.628  12.640   7.952  0.1756  0.0583 -0.6519
   28TAL   C13710711   5.652  12.759   8.042 -0.2523  0.5280 -0.3995
   28TAL   C13810712   5.790  12.786   8.092 -0.8435 -0.6096 -0.5143
   28TAL   C13910713   5.838  12.688   8.204  0.0112  0.1596 -0.0503
   28TAL   C14010714   5.953  12.740   8.289  0.3481 -0.0911 -0.7106
   29HTM   C14110715   5.840  12.881   7.663  0.3464  0.5175  0.1430
   29HTM   C14210716   5.868  12.946   7.546  0.2770  0.4892  0.1101
   29HTM   C14310717   5.807  13.076   7.536  0.1004  0.3996  0.0253
   29HTM   C14410718   5.732  13.110   7.644  0.0348  0.3597 -0.0065
   29HTM    S1510719   5.733  12.980   7.769  0.1925  0.4325  0.0686
   30TAL   C14510720   5.843  13.159   7.412  0.3287  0.6575 -0.2287
   30TAL   C14610721   5.902  13.295   7.414 -0.0971  0.2927  0.5495
   30TAL   C14710722   6.030  13.321   7.484 -0.1414  0.2874  0.3941
   30TAL   C14810723   6.070  13.462   7.479  0.1830  0.1745  0.1861
   30TAL   C14910724   6.184  13.490   7.574  0.3891 -0.2201  0.8511
   30TAL   C15010725   6.242  13.626   7.578 -0.4035  0.3588 -0.5993
   31HTM   C15110726   5.648  13.227   7.672 -0.1919  0.1786  0.4106
   31HTM   C15210727   5.513  13.242   7.676 -0.1767  0.3390  0.3543
   31HTM   C15310728   5.470  13.375   7.710 -0.0358  0.4871 -0.0429
   31HTM   C15410729   5.573  13.462   7.732  0.0559  0.4393 -0.2899
   31HTM    S1610730   5.733  13.382   7.710 -0.0284  0.2020 -0.0377
   32TAL   C15510731   5.324  13.416   7.729 -0.3593 -0.1735  0.2122
   32TAL   C15610732   5.247  13.470   7.607 -0.0921  0.0242  0.0350
   32TAL   C15710733   5.102  13.490   7.645  0.3873 -0.1976 -0.0795
   32TAL   C15810734   5.024  13.558   7.538  0.2970 -0.0546  0.2626
   32TAL   C15910735   5.044  13.705   7.534  0.4098 -0.4083  0.0769
   32TAL   C16010736   4.994  13.763   7.407 -0.2486  0.3205  0.9575
   33HTM   C16110737   5.580  13.605   7.768  0.3860 -0.1641 -0.4745
   33HTM   C16210738   5.470  13.680   7.801  0.1562 -0.6037 -0.2394
   33HTM   C16310739   5.501  13.816   7.834 -0.2787 -0.5808  0.0749
   33HTM   C16410740   5.634  13.846   7.827 -0.3802 -0.1240  0.0792
   33HTM    S1710741   5.731  13.703   7.777  0.0691  0.3166 -0.3163
   34TAL   C16510742   5.384  13.912   7.866  0.2670 -0.5351 -0.0469
   34TAL   C16610743   5.346  13.946   8.016 -0.1930  0.1312  0.2392
   34TAL   C16710744   5.290  13.834   8.104  1.0505 -0.3273  0.6006
   34TAL   C16810745   5.154  13.769   8.079 -0.6636 -0.4172  0.9720
   34TAL   C16910746   5.093  13.758   7.938  0.6875  0.3415 -0.1396
   34TAL   C17010747   4.952  13.703   7.942 -0.2263 -0.4807  0.6468
   35HTM   C17110748   5.697  13.980   7.846 -0.1537  0.0164 -0.5449
   35HTM   C17210749   5.655  14.088   7.917 -0.1404  0.0126 -0.5312
   35HTM   C17310750   5.742  14.202   7.907  0.0212 -0.0873 -0.2902
   35HTM   C17410751   5.850  14.181   7.827  0.1316 -0.1589 -0.1206
   35HTM    S1810752   5.851  14.014   7.759  0.0390 -0.1060 -0.2528
   36TAL   C17510753   5.705  14.337   7.977 -0.3660  0.7647 -0.1589
   36TAL   C17610754   5.624  14.332   8.108  0.3972  0.2834  0.7399
   36TAL   C17710755   5.586  14.472   8.160 -0.2587  0.5165 -0.0569
   36TAL   C17810756   5.503  14.465   8.288  0.3544 -0.3165 -0.1465
   36TAL   C17910757   5.510  14.592   8.367 -0.0574  0.6654 -0.0568
   36TAL   C18010758   5.623  14.589   8.470 -0.3751 -0.1823 -0.0745
   37HTM   C18110759   5.961  14.272   7.799  0.3608  0.0496  0.0161
   37HTM   C18210760   6.087  14.229   7.770  0.3836  0.3181 -0.2873
   37HTM   C18310761   6.181  14.336   7.746  0.1245  0.5198 -0.4127
   37HTM   C18410762   6.126  14.460   7.758 -0.0961  0.4050 -0.2048
   37HTM    S1910763   5.951  14.452   7.799  0.0073  0.0307  0.1684
   38TAL   C18510764   6.331  14.314   7.723 -0.0387 -0.4497 -0.0010
   38TAL   C18610765   6.365  14.269   7.578  0.3411 -0.1268 -0.8659
   38TAL   C18710766   6.326  14.129   7.551  0.5388 -0.6163 -0.9914
   38TAL   C18810767   6.417  14.083   7.441 -0.2703 -0.2379 -0.5296
   38TAL   C18910768   6.388  13.934   7.408 -0.4605 -0.6148 -0.2082
   38TAL   C19010769   6.488  13.882   7.311  0.3779 -0.1209  0.0192
   39HTM   C19110770   6.176  14.592   7.733 -0.1617  0.3326 -0.1223
   39HTM   C19210771   6.236  14.644   7.622 -0.2818  0.4296 -0.1419
   39HTM   C19310772   6.249  14.788   7.625 -0.2830  0.4275 -0.0336
   39HTM   C19410773   6.200  14.845   7.738 -0.1639  0.3290  0.0682
   39HTM    S2010774   6.132  14.721   7.851 -0.0399  0.2304  0.0351
   40TAL   C19510775   6.314  14.854   7.505 -0.4284  0.5012 -0.1086
   40TAL   C19610776   6.229  14.874   7.380 -0.2181  0.5122  0.0374
   40TAL   C19710777   6.095  14.942   7.391 -0.1157 -0.0782 -0.2268
   40TAL   C19810778   6.102  15.084   7.429 -0.2213 -0.0923 -0.0975
   40TAL   C19910779   5.965  15.151   7.438 -0.2511 -0.0063  0.3878
   40TAL   C20010780   5.984  15.294   7.486 -0.9776 -0.6261  0.3380
   41HTM   C20110781   6.183  14.987   7.778 -0.3614 -0.1541 -0.6036
   41HTM   C20210782   6.267  15.091   7.750 -0.5100 -0.1068 -0.8700
   41HTM   C20310783   6.214  15.219   7.787 -0.3424 -0.1631 -0.4303
   41HTM   C20410784   6.090  15.213   7.844 -0.0654 -0.2536  0.1712
   41HTM    S2110785   6.030  15.043   7.855  0.0050 -0.2745  0.2298
   42TAL   C20510786   6.293  15.348   7.770 -0.1722 -0.0560  0.2253
   42TAL   C20610787   6.291  15.434   7.642  0.0701  0.4659 -0.3373
   42TAL   C20710788   6.361  15.377   7.520  0.2807  0.1719 -0.6151
   42TAL   C20810789   6.374  15.462   7.395 -0.1676 -0.1924  0.0257
   42TAL   C20910790   6.444  15.389   7.275  0.3347 -0.6262  0.0672
   42TAL   C21010791   6.590  15.367   7.294  0.4270  0.5146  0.0031
   43HTM   C21110792   6.003  15.323   7.893  0.2848 -0.1239  0.1994
   43HTM   C21210793   5.987  15.450   7.847 -0.0205 -0.2751 -0.1161
   43HTM   C21310794   5.876  15.520   7.907 -0.2470 -0.4244 -0.3605
   43HTM   C21410795   5.808  15.446   7.998 -0.1143 -0.3873 -0.2308
   43HTM    S2210796   5.878  15.281   8.017  0.3099 -0.1590  0.2134
   44TAL   C21510797   5.839  15.662   7.864  0.0959  0.4686 -0.5541
   44TAL   C21610798   5.925  15.739   7.762  0.0272  0.2518  0.0272
   44TAL   C21710799   5.918  15.697   7.619 -0.2320 -0.2698 -0.3212
   44TAL   C21810800   6.026  15.770   7.541  0.4571 -0.9538 -0.3001
   44TAL   C21910801   6.069  15.722   7.404 -0.6471 -0.0973  0.0442
   44TAL   C22010802   6.193  15.798   7.346  0.0667 -0.2067 -0.2999
   45HTM   C22110803   5.691  15.483   8.085  0.0800  0.3661 -0.1020
   45HTM   C22210804   5.594  15.578   8.071  0.0944  0.4320  0.2289
   45HTM   C22310805   5.488  15.567   8.168  0.1993  0.2387  0.3238
   45HTM   C22410806   5.504  15.465   8.256  0.2650  0.0250  0.0633
   45HTM    S2310807   5.656  15.373   8.224  0.1991  0.0516 -0.3224
   46TAL   C22510808   5.379  15.673   8.181  0.1281  0.3242  0.0953
   46TAL   C22610809   5.419  15.815   8.206  0.2063  0.1581  0.4080
   46TAL   C22710810   5.294  15.901   8.200 -0.5231  0.3832 -0.6903
   46TAL   C22810811   5.325  16.045   8.214 -0.4719  0.3069  0.0786
   46TAL   C22910812   5.207  16.144   8.218 -0.0253 -0.9255 -0.3476
   46TAL   C23010813   5.117  16.168   8.096 -0.3908 -0.1510 -0.0511
   47HTM   C23110814   5.419  15.427   8.366  0.2305  0.2494 -0.1457
   47HTM   C23210815   5.288  15.390   8.359  0.2453  0.2208 -0.2842
   47HTM   C23310816   5.241  15.321   8.476  0.2034 -0.0100 -0.4363
   47HTM   C23410817   5.337  15.305   8.572  0.1571 -0.1568 -0.4140
   47HTM    S2410818   5.494  15.377   8.521  0.1621 -0.0139 -0.1970
   48TAL   C23510819   5.098  15.273   8.486 -0.4181 -0.2152  0.0182
   48TAL   C23610820   5.061  15.187   8.605  0.8551 -0.0458 -0.3746
   48TAL   C23710821   4.937  15.105   8.573 -0.0150 -0.0642  0.0538
   48TAL   C23810822   4.885  15.041   8.702  0.3724  0.2447  0.1491
   48TAL   C23910823   4.749  14.975   8.689 -0.6225  0.6676  0.5747
   48TAL   C24010824   4.635  15.069   8.629 -0.8327  0.8554  0.3743
    1HTM     C110825   4.029   0.128   8.354 -0.1968  0.3106 -0.4728
    1HTM     C210826   3.901   0.123   8.308 -0.3948  0.1132  0.0815
    1HTM     C310827   3.816   0.228   8.357 -0.4348 -0.2071  0.7057
    1HTM     C410828   3.880   0.314   8.442 -0.2672 -0.2539  0.6270
    1HTM     S110829   4.053   0.267   8.466 -0.0441  0.1056 -0.2487
    2TAL     C510830   3.668   0.224   8.314 -0.3164  0.5157 -0.0712
    2TAL     C610831   3.579   0.134   8.404 -0.1873 -0.6936  0.2314
    2TAL     C710832   3.432   0.112   8.367 -0.2093 -0.0241  0.1478
    2TAL     C810833   3.346   0.228   8.315  0.3689  0.6272  0.3317
    2TAL     C910834   3.319   0.328   8.420 -0.1370  0.2601 -0.2857
    2TAL    C1010835   3.260   0.456   8.366 -0.6332  0.3288  0.3264
    3HTM    C1110836   3.822   0.425   8.521 -0.0283 -0.2251 -0.4433
    3HTM    C1210837   3.877   0.473   8.636 -0.1059 -0.5572 -0.2651
    3HTM    C1310838   3.813   0.592   8.686 -0.0776 -0.6464 -0.0191
    3HTM    C1410839   3.708   0.634   8.610  0.0215 -0.3825 -0.0100
    3HTM     S210840   3.682   0.527   8.467  0.0875  0.0023 -0.3131
    4TAL    C1510841   3.873   0.662   8.807 -0.5422 -0.4917 -0.2419
    4TAL    C1610842   3.979   0.772   8.761 -0.0727  0.5860  0.6611
    4TAL    C1710843   4.050   0.847   8.872  0.1288  0.0438  0.3412
    4TAL    C1810844   4.176   0.931   8.825 -0.2517  0.0607 -0.6698
    4TAL    C1910845   4.303   0.856   8.781 -0.1211  0.8798 -0.0756
    4TAL    C2010846   4.420   0.950   8.763  0.0298  0.2201  0.1433
    5HTM    C2110847   3.613   0.747   8.626 -0.1573 -0.0731  0.1042
    5HTM    C2210848   3.478   0.738   8.609 -0.2179 -0.1191  0.6056
    5HTM    C2310849   3.406   0.857   8.646 -0.1243 -0.1500  0.8893
    5HTM    C2410850   3.487   0.958   8.691  0.0074 -0.1276  0.6049
    5HTM     S310851   3.660   0.909   8.690  0.0239 -0.0652 -0.0493
    6TAL    C2510852   3.253   0.862   8.637 -0.0748  0.7131 -0.5566
    6TAL    C2610853   3.176   0.752   8.709 -0.4180 -0.3078  0.5164
    6TAL    C2710854   3.035   0.759   8.655 -0.2704 -0.0022 -0.4012
    6TAL    C2810855   2.952   0.633   8.689 -0.0870 -0.6534  0.8677
    6TAL    C2910856   2.804   0.645   8.672 -0.2094 -0.4700  0.5358
    6TAL    C3010857   2.720   0.523   8.685  0.0407  0.3858 -0.1300
    7HTM    C3110858   3.457   1.094   8.735 -0.2077 -0.2229  0.5542
    7HTM    C3210859   3.539   1.176   8.807 -0.7282 -0.6649  1.6851
    7HTM    C3310860   3.481   1.304   8.839 -0.8502 -0.7449  1.7848
    7HTM    C3410861   3.354   1.320   8.792 -0.4230 -0.3639  0.7292
    7HTM     S410862   3.298   1.173   8.703  0.1713  0.1293 -0.4811
    8TAL    C3510863   3.567   1.416   8.892 -0.0976  0.2534 -0.6820
    8TAL    C3610864   3.719   1.396   8.899  0.2798  0.3837 -0.7508
    8TAL    C3710865   3.776   1.512   8.982  0.0569 -0.1424  0.3767
    8TAL    C3810866   3.920   1.488   9.014 -0.6483  0.0048 -0.0291
    8TAL    C3910867   3.965   1.629   9.058  0.0801  0.1529 -0.8055
    8TAL    C4010868   4.113   1.626   9.052 -0.6346  0.0990 -0.0864
    9HTM    C4110869   3.259   1.424   8.801  0.6122  0.0339  0.2345
    9HTM    C4210870   3.134   1.430   8.747  0.5248 -0.5440  0.3715
    9HTM    C4310871   3.064   1.553   8.775  0.0588 -0.7852  0.2837
    9HTM    C4410872   3.137   1.641   8.849 -0.2089 -0.3912  0.0804
    9HTM     S510873   3.299   1.575   8.891  0.1091  0.3205 -0.0165
   10TAL    C4510874   2.922   1.558   8.725  0.0516  0.5171  0.0022
   10TAL    C4610875   2.845   1.690   8.736  0.5469  0.5355 -0.6221
   10TAL    C4710876   2.708   1.690   8.671 -0.4576  0.4975  0.1637
   10TAL    C4810877   2.628   1.819   8.699 -0.3078 -0.0035 -0.2012
   10TAL    C4910878   2.599   1.849   8.843  0.1685 -0.7118  0.5746
   10TAL    C5010879   2.521   1.977   8.851  0.4543 -0.7140  0.5320
   11HTM    C5110880   3.112   1.771   8.901 -0.2217 -0.4489  0.0744
   11HTM    C5210881   3.169   1.891   8.871  0.1012 -0.6490 -0.1178
   11HTM    C5310882   3.123   1.999   8.954  0.5176 -0.4242 -0.1798
   11HTM    C5410883   3.032   1.962   9.048  0.5124 -0.0526 -0.0346
   11HTM     S610884   2.996   1.785   9.038 -0.0233  0.0429  0.1931
   12TAL    C5510885   3.173   2.148   8.936  0.1740 -0.3332  0.4216
   12TAL    C5610886   3.308   2.195   8.992 -0.2064  0.3784 -0.1410
   12TAL    C5710887   3.324   2.200   9.141 -0.0797  0.0970 -0.4570
   12TAL    C5810888   3.242   2.289   9.231 -0.2611 -0.4696 -0.7468
   12TAL    C5910889   3.188   2.416   9.177  0.3713  0.6967 -0.3631
   12TAL    C6010890   3.104   2.475   9.281  0.3925 -0.1981 -0.2130
   13HTM    C6110891   2.963   2.032   9.159  0.1444  0.3419  0.0357
   13HTM    C6210892   2.874   2.136   9.161  0.0529  0.2648 -0.0420
   13HTM    C6310893   2.831   2.174   9.293 -0.3449  0.0147 -0.0963
   13HTM    C6410894   2.887   2.100   9.392 -0.5565 -0.0985 -0.0602
   13HTM     S710895   3.000   1.975   9.326 -0.2679  0.1031  0.0462
   14TAL    C6510896   2.735   2.286   9.322  0.2389 -0.1974  0.1481
   14TAL    C6610897   2.687   2.375   9.210 -0.0491 -0.2751  0.1227
   14TAL    C6710898   2.597   2.311   9.098  0.7039  0.2023 -0.3848
   14TAL    C6810899   2.463   2.245   9.144 -0.3215 -0.1402  0.2419
   14TAL    C6910900   2.351   2.328   9.218 -0.1559 -0.2244  0.2604
   14TAL    C7010901   2.216   2.265   9.215 -0.0949 -0.1394 -0.4985
   15HTM    C7110902   2.883   2.115   9.536 -0.0436  0.5585  0.0138
   15HTM    C7210903   2.782   2.073   9.617 -0.1978  0.7651 -0.0725
   15HTM    C7310904   2.818   2.063   9.756 -0.2738  0.4832 -0.0722
   15HTM    C7410905   2.948   2.097   9.781 -0.1780  0.0616  0.0143
   15HTM     S810906   3.034   2.145   9.630  0.0175 -0.0126  0.1028
   16TAL    C7510907   2.718   2.031   9.863  0.7022  0.1958  0.7390
   16TAL    C7610908   2.591   1.944   9.832  0.1060 -0.5023 -0.3447
   16TAL    C7710909   2.595   1.807   9.771  0.5084  0.0239  0.1919
   16TAL    C7810910   2.469   1.722   9.810 -0.4445  0.0621  0.1056
   16TAL    C7910911   2.435   1.586   9.740  0.2726 -0.2725  0.7490
   16TAL    C8010912   2.412   1.604   9.584 -0.1868 -0.4147 -0.4976
   17HTM    C8110913   3.034   2.088   9.899 -0.1647  0.3011  0.2418
   17HTM    C8210914   3.012   2.026  10.018 -0.0837  0.4636  0.3421
   17HTM    C8310915   3.123   2.033  10.109  0.1022  0.3017  0.1293
   17HTM    C8410916   3.231   2.101  10.059  0.1629  0.0157 -0.1333
   17HTM     S910917   3.199   2.161   9.892 -0.0112 -0.0720 -0.1322
   18TAL    C8510918   3.124   1.967  10.244 -0.2795  0.8255  0.1633
   18TAL    C8610919   2.997   1.893  10.297 -0.9883 -0.1939 -0.1580
   18TAL    C8710920   3.007   1.866  10.447 -0.2285  0.1273 -0.3139
   18TAL    C8810921   3.131   1.781  10.490  0.1940  0.0939  0.5796
   18TAL    C8910922   3.119   1.637  10.450  0.0936  0.0914  0.3396
   18TAL    C9010923   3.237   1.556  10.499 -0.0303 -0.2454  0.0733
   19HTM    C9110924   3.363   2.127  10.108 -0.3021  0.5020 -0.0180
   19HTM    C9210925   3.403   2.117  10.238 -0.3171  0.1402 -0.0408
   19HTM    C9310926   3.539   2.159  10.260 -0.1937 -0.2857  0.0271
   19HTM    C9410927   3.602   2.202  10.147 -0.0846 -0.2485  0.1017
   19HTM    S1010928   3.494   2.192  10.003 -0.1299  0.3316  0.0918
   20TAL    C9510929   3.609   2.155  10.392 -0.0976 -0.0880  0.2826
   20TAL    C9610930   3.521   2.171  10.516  0.2000  0.2825 -0.3989
   20TAL    C9710931   3.607   2.194  10.634 -0.5895  0.2380 -0.2760
   20TAL    C9810932   3.547   2.258  10.760 -0.9289 -0.1470 -0.0333
   20TAL    C9910933   3.482   2.396  10.749  0.2483 -0.5344 -0.4070
   20TAL   C10010934   3.384   2.418  10.864  0.1364  0.1977  0.5946
   21HTM   C10110935   3.726   2.271  10.126 -0.1425 -0.4051 -0.0728
   21HTM   C10210936   3.748   2.372  10.038 -0.2639 -0.6014 -0.3318
   21HTM   C10310937   3.885   2.416  10.034 -0.3228 -0.4240 -0.4170
   21HTM   C10410938   3.967   2.348  10.119 -0.2460 -0.0922 -0.2230
   21HTM    S1110939   3.877   2.222  10.212 -0.0924  0.0224  0.0847
   22TAL   C10510940   3.923   2.527   9.931 -0.4129  0.5747 -0.8043
   22TAL   C10610941   3.920   2.677   9.980  0.6942 -0.2005  0.3018
   22TAL   C10710942   3.780   2.734   9.992  0.2247 -0.8703  0.0627
   22TAL   C10810943   3.804   2.882  10.009  0.0688 -0.2556 -0.0801
   22TAL   C10910944   3.676   2.962  10.004 -0.4159 -0.5627 -0.3447
   22TAL   C11010945   3.577   2.922  10.113  0.1105 -0.2149  0.2397
   23HTM   C11110946   4.112   2.372  10.152  0.0953  0.0821  0.4701
   23HTM   C11210947   4.172   2.494  10.156  0.2756 -0.0069  0.4822
   23HTM   C11310948   4.310   2.489  10.196  0.4010 -0.2664  0.0308
   23HTM   C11410949   4.355   2.364  10.224  0.3164 -0.3753 -0.3255
   23HTM    S1210950   4.225   2.240  10.200  0.0696 -0.1569 -0.1170
   24TAL   C11510951   4.392   2.619  10.204 -0.3958  0.1220 -0.2954
   24TAL   C11610952   4.361   2.759  10.151 -0.3458  0.4519 -0.3829
   24TAL   C11710953   4.230   2.821  10.199 -0.2252  0.2389 -0.2541
   24TAL   C11810954   4.212   2.965  10.145 -0.3254 -0.5477 -0.6666
   24TAL   C11910955   4.073   3.022  10.203 -0.3441 -0.5242 -0.0318
   24TAL   C12010956   4.050   3.173  10.184  0.4472 -0.0150 -0.0543
   25HTM   C12110957   4.482   2.317  10.273 -0.2737 -0.1531 -0.4052
   25HTM   C12210958   4.500   2.221  10.368 -0.5753 -0.1979 -0.3929
   25HTM   C12310959   4.636   2.176  10.380 -0.6146 -0.2121  0.0117
   25HTM   C12410960   4.722   2.238  10.294 -0.3430 -0.1783  0.3079
   25HTM    S1310961   4.637   2.359  10.191 -0.0145 -0.1254  0.0971
   26TAL   C12510962   4.677   2.073  10.481  0.0139  0.1543  0.1990
   26TAL   C12610963   4.669   1.939  10.420 -0.5165 -0.0568  0.2995
   26TAL   C12710964   4.727   1.831  10.514  0.2522 -0.1841  0.3726
   26TAL   C12810965   4.875   1.830  10.523  0.3382 -0.2581 -0.8116
   26TAL   C12910966   4.916   1.706  10.602 -0.5505  0.2988  0.0823
   26TAL   C13010967   5.051   1.708  10.661 -0.2923  0.0710  0.1208
   27HTM   C13110968   4.869   2.222  10.285 -0.2237 -0.0668  0.3120
   27HTM   C13210969   4.949   2.116  10.314 -0.1724  0.0062  0.4359
   27HTM   C13310970   5.090   2.148  10.314 -0.1898  0.0830  0.4392
   27HTM   C13410971   5.117   2.278  10.284 -0.2538  0.0687  0.3177
   27HTM    S1410972   4.965   2.372  10.254 -0.2979 -0.0438  0.1889
   28TAL   C13510973   5.191   2.041  10.355 -0.4662 -0.0159 -0.1770
   28TAL   C13610974   5.206   1.999  10.495  0.0249 -0.3557 -0.1136
   28TAL   C13710975   5.272   2.091  10.592  0.1059 -0.4171 -0.4223
   28TAL   C13810976   5.216   2.225  10.646 -0.1569 -0.6501 -0.0230
   28TAL   C13910977   5.068   2.231  10.693  0.1954 -0.4748 -0.2274
   28TAL   C14010978   5.029   2.369  10.732  0.1924  0.2824  0.6984
   29HTM   C14110979   5.241   2.359  10.282 -0.1122  0.1353  0.3121
   29HTM   C14210980   5.249   2.494  10.267 -0.3691  0.1491  0.2977
   29HTM   C14310981   5.383   2.545  10.268 -0.4520  0.3760  0.0304
   29HTM   C14410982   5.478   2.448  10.283 -0.2587  0.5353 -0.1590
   29HTM    S1510983   5.404   2.284  10.298  0.0460  0.4101 -0.0134
   30TAL   C14510984   5.422   2.691  10.259 -0.4364 -0.2958 -0.5966
   30TAL   C14610985   5.312   2.795  10.261 -0.1448 -0.5171  0.4264
   30TAL   C14710986   5.367   2.930  10.217  0.0682  0.8120  0.0836
   30TAL   C14810987   5.274   3.057  10.216 -0.5854  0.8339 -0.6599
   30TAL   C14910988   5.341   3.193  10.177 -0.0243 -0.0962 -0.8897
   30TAL   C15010989   5.376   3.207  10.027  0.0418  0.2096 -0.3221
   31HTM   C15110990   5.626   2.453  10.290  0.2056  0.2838 -0.1677
   31HTM   C15210991   5.711   2.515  10.377  0.3686  0.1484 -0.2294
   31HTM   C15310992   5.851   2.495  10.346  0.3211 -0.4166 -0.0928
   31HTM   C15410993   5.872   2.419  10.236  0.1222 -0.7123  0.0730
   31HTM    S1610994   5.717   2.365  10.161 -0.0219 -0.2966  0.0693
   32TAL   C15510995   5.969   2.537  10.432  0.6797 -0.7116 -0.0642
   32TAL   C15610996   5.955   2.680  10.494 -0.4368  0.6629 -0.0525
   32TAL   C15710997   5.913   2.799  10.403  0.3932  0.0154  0.6435
   32TAL   C15810998   5.980   2.809  10.261  0.2262  0.0821  0.2472
   32TAL   C15910999   6.124   2.788  10.255 -0.2264 -0.1956  0.5326
   32TAL   C16011000   6.198   2.811  10.122 -0.3377 -0.2538  0.0327
   33HTM   C16111001   5.998   2.370  10.167 -0.0826 -0.0338  0.3228
   33HTM   C16211002   6.002   2.265  10.080 -0.0923 -0.0012  0.2835
   33HTM   C16311003   6.135   2.236  10.030 -0.1147  0.0914  0.1686
   33HTM   C16411004   6.231   2.319  10.081 -0.1220  0.1292  0.1204
   33HTM    S1711005   6.162   2.440  10.195 -0.1012  0.0506  0.2171
   34TAL   C16511006   6.162   2.115   9.937 -0.6073  0.5743 -0.3935
   34TAL   C16611007   6.125   2.146   9.795  0.3194  0.1807  0.5017
   34TAL   C16711008   6.178   2.045   9.693 -0.0279 -0.0478  0.6806
   34TAL   C16811009   6.331   2.059   9.663 -0.0346  0.1949  0.1212
   34TAL   C16911010   6.392   1.940   9.598 -0.0042  0.0660 -0.1654
   34TAL   C17011011   6.542   1.953   9.555 -0.5767 -0.4982 -0.1101
   35HTM   C17111012   6.376   2.317  10.049  0.1853  0.1938  0.7354
   35HTM   C17211013   6.451   2.203  10.037  0.1538  0.1632  0.8341
   35HTM   C17311014   6.591   2.228  10.014  0.0658  0.1006  0.2317
   35HTM   C17411015   6.622   2.361  10.007  0.0299  0.0836 -0.3265
   35HTM    S1811016   6.477   2.465  10.030  0.1050  0.1455 -0.1329
   36TAL   C17511017   6.686   2.115  10.005 -0.4014 -0.9484 -0.1211
   36TAL   C17611018   6.696   2.057   9.862 -0.2718 -0.2494 -0.1023
   36TAL   C17711019   6.798   1.940   9.851 -0.5862  0.6900  0.6120
   36TAL   C17811020   6.941   1.992   9.877 -0.3232 -0.3410 -0.5089
   36TAL   C17911021   7.054   1.894   9.860 -0.2410  0.0388 -0.6626
   36TAL   C18011022   7.082   1.835   9.723  0.0469  0.4506 -0.0563
   37HTM   C18111023   6.756   2.421   9.988  0.1461 -0.1389  0.4171
   37HTM   C18211024   6.841   2.404   9.882  0.1864 -0.4046  0.4912
   37HTM   C18311025   6.955   2.492   9.885  0.1657 -0.3715  0.2905
   37HTM   C18411026   6.956   2.577   9.992  0.1097 -0.0807  0.0634
   37HTM    S1911027   6.813   2.551  10.099  0.0789  0.1761  0.0854
   38TAL   C18511028   7.057   2.499   9.767  1.2059  0.5983  0.3392
   38TAL   C18611029   7.126   2.371   9.734 -0.8865  0.7178  0.6601
   38TAL   C18711030   7.223   2.315   9.835 -0.2914  0.0014  0.2431
   38TAL   C18811031   7.289   2.190   9.773  0.0005  0.0661 -0.1330
   38TAL   C18911032   7.385   2.121   9.873  0.0446  0.4386  1.0062
   38TAL   C19011033   7.441   1.989   9.827  0.0284  1.0022 -0.4112
   39HTM   C19111034   7.045   2.689  10.017 -0.4527  0.2933  0.1811
   39HTM   C19211035   7.008   2.818  10.043 -0.0591  0.5188 -0.3573
   39HTM   C19311036   7.118   2.909  10.053  0.2313  0.1966 -0.5878
   39HTM   C19411037   7.240   2.850  10.036  0.0590 -0.2746 -0.2252
   39HTM    S2011038   7.224   2.673  10.004 -0.4876 -0.3483  0.4408
   40TAL   C19511039   7.082   3.059  10.071  0.4530  0.5197  0.0872
   40TAL   C19611040   7.049   3.105  10.210  0.4643 -0.1895 -0.4618
   40TAL   C19711041   7.008   3.255  10.218  0.1700 -0.8782  0.0987
   40TAL   C19811042   7.115   3.351  10.175 -0.3578 -0.6745 -0.3012
   40TAL   C19911043   7.065   3.495  10.195 -0.2474 -0.2754 -0.1666
   40TAL   C20011044   7.167   3.600  10.156 -0.1730  0.0678 -0.0430
   41HTM   C20111045   7.375   2.915  10.023 -0.0934  0.2146  0.0439
   41HTM   C20211046   7.405   3.044  10.055 -0.1194  0.2028  0.1150
   41HTM   C20311047   7.540   3.082  10.024 -0.1414  0.2626  0.0920
   41HTM   C20411048   7.613   2.982   9.966 -0.1318  0.3202  0.0033
   41HTM    S2111049   7.516   2.831   9.948 -0.0943  0.3031 -0.0585
   42TAL   C20511050   7.582   3.229  10.037 -0.5406  0.0073 -0.1344
   42TAL   C20611051   7.700   3.282  10.117  0.8569 -0.8434 -0.3176
   42TAL   C20711052   7.712   3.437  10.127  0.3573 -0.0541 -0.0373
   42TAL   C20811053   7.836   3.466  10.209 -0.0310  0.3477  0.0635
   42TAL   C20911054   7.869   3.616  10.220  0.4111 -0.4387  0.7811
   42TAL   C21011055   7.987   3.648  10.313 -0.5074  0.0449  0.1243
   43HTM   C21111056   7.752   2.976   9.937 -0.0458 -0.1445 -0.5447
   43HTM   C21211057   7.820   3.075   9.873 -0.0718  0.0901 -0.2078
   43HTM   C21311058   7.962   3.053   9.867 -0.0169  0.3475  0.0729
   43HTM   C21411059   8.002   2.937   9.925  0.0502  0.3088 -0.0500
   43HTM    S2211060   7.863   2.845   9.994  0.0497 -0.0584 -0.5334
   44TAL   C21511061   8.038   3.166   9.801 -0.3406  0.9426  0.3830
   44TAL   C21611062   8.152   3.220   9.896  0.7171 -0.5257  0.0755
   44TAL   C21711063   8.280   3.265   9.831 -0.1241 -0.1149  0.4513
   44TAL   C21811064   8.396   3.247   9.920  0.6253 -0.2332 -0.5112
   44TAL   C21911065   8.523   3.301   9.864 -0.3104 -0.8181  0.1055
   44TAL   C22011066   8.634   3.296   9.971  0.4622  0.4956  0.4045
   45HTM   C22111067   8.138   2.894   9.937  0.3092  0.4670  0.3119
   45HTM   C22211068   8.210   2.848  10.044  0.4458  0.7908  0.3602
   45HTM   C22311069   8.349   2.826  10.016  0.3600  0.4702  0.1773
   45HTM   C22411070   8.384   2.856   9.887  0.1579 -0.0981 -0.0103
   45HTM    S2311071   8.242   2.913   9.791  0.0595 -0.2736  0.0297
   46TAL   C22511072   8.443   2.774  10.120 -0.4352 -0.5656 -0.4842
   46TAL   C22611073   8.395   2.782  10.269  0.5090 -0.3277  0.6847
   46TAL   C22711074   8.492   2.739  10.376  0.0509  0.4520  0.3426
   46TAL   C22811075   8.552   2.597  10.372  0.1688 -0.1619  0.2262
   46TAL   C22911076   8.452   2.482  10.363  0.1702 -0.3011  0.2965
   46TAL   C23011077   8.532   2.362  10.344 -0.5837 -0.3289  0.1908
   47HTM   C23111078   8.513   2.859   9.821 -0.1683 -0.1431  0.4175
   47HTM   C23211079   8.564   2.962   9.747  0.0710  0.1248  0.9505
   47HTM   C23311080   8.693   2.934   9.691  0.1640  0.2524  1.1010
   47HTM   C23411081   8.742   2.810   9.721 -0.0041  0.0817  0.6830
   47HTM    S2411082   8.626   2.718   9.825 -0.2952 -0.2560  0.0617
   48TAL   C23511083   8.772   3.043   9.611 -0.1846 -0.2303 -0.3545
   48TAL   C23611084   8.918   3.002   9.562  0.3465 -0.8002 -0.6014
   48TAL   C23711085   8.984   3.109   9.481 -0.3716  0.3437 -0.5055
   48TAL   C23811086   9.140   3.085   9.471  1.0953  0.3145  0.6841
   48TAL   C23911087   9.208   3.182   9.372  0.3244  0.3470 -0.5368
   48TAL   C24011088   9.351   3.222   9.408 -0.2823 -0.2632 -1.0969
    1HTM     C111089   7.374   4.734   1.384 -0.3233  0.6275 -0.5096
    1HTM     C211090   7.493   4.712   1.446  0.0675  0.9184 -1.1500
    1HTM     C311091   7.504   4.777   1.574  0.3433  0.4041 -0.9120
    1HTM     C411092   7.393   4.847   1.610  0.1623 -0.2791 -0.0898
    1HTM     S111093   7.265   4.838   1.483 -0.3742 -0.3260  0.4516
    2TAL     C511094   7.632   4.756   1.653 -0.1453  0.4665 -0.5125
    2TAL     C611095   7.693   4.619   1.681 -0.0332  0.1360  0.3384
    2TAL     C711096   7.831   4.630   1.738  0.2549 -0.0241 -0.4344
    2TAL     C811097   7.914   4.505   1.767 -0.0000  0.5347  0.1796
    2TAL     C911098   8.046   4.536   1.837 -0.4823 -0.1524 -0.2035
    2TAL    C1011099   8.132   4.416   1.864 -0.0668  0.3744  0.2909
    3HTM    C1111100   7.351   4.910   1.734 -0.0751  0.2241  0.0140
    3HTM    C1211101   7.425   4.986   1.820 -0.0627  0.2108  0.0150
    3HTM    C1311102   7.348   5.049   1.924 -0.0331  0.1054  0.1019
    3HTM    C1411103   7.214   5.022   1.917 -0.0230  0.0387  0.1670
    3HTM     S211104   7.176   4.913   1.778 -0.0508  0.1039  0.1234
    4TAL    C1511105   7.411   5.119   2.042 -0.1140 -0.0282  0.5554
    4TAL    C1611106   7.437   5.264   2.029  0.4741 -0.4032  0.2802
    4TAL    C1711107   7.540   5.305   1.928 -0.3196  0.1890  0.1958
    4TAL    C1811108   7.580   5.452   1.937 -0.0979 -0.1499 -0.0114
    4TAL    C1911109   7.718   5.486   1.885  0.0189  0.2236 -0.6154
    4TAL    C2011110   7.755   5.628   1.899  0.3044  0.1929  0.3869
    5HTM    C2111111   7.112   5.077   2.005 -0.0547 -0.1845 -0.6378
    5HTM    C2211112   7.109   5.202   2.058  0.3803 -0.1464 -0.7029
    5HTM    C2311113   6.979   5.244   2.102  0.6146  0.1426 -0.2764
    5HTM    C2411114   6.882   5.150   2.083  0.3581  0.3246  0.1136
    5HTM     S311115   6.948   5.000   2.007 -0.2032  0.1442 -0.0283
    6TAL    C2511116   6.961   5.382   2.173 -0.4522  0.1170 -0.0503
    6TAL    C2611117   7.069   5.493   2.180  0.4962 -0.4061 -0.0251
    6TAL    C2711118   7.115   5.551   2.039  0.7423  0.0630  0.5242
    6TAL    C2811119   7.213   5.669   2.046  0.4164  0.6446 -0.6163
    6TAL    C2911120   7.284   5.671   1.919  0.2176 -0.7632 -0.8323
    6TAL    C3011121   7.383   5.786   1.916 -0.2717  0.5206 -0.2463
    7HTM    C3111122   6.740   5.152   2.109  0.1544  0.1550 -0.3681
    7HTM    C3211123   6.646   5.084   2.037 -0.0274  0.5517 -0.5091
    7HTM    C3311124   6.511   5.105   2.082  0.0377  0.7262 -0.3951
    7HTM    C3411125   6.502   5.188   2.190  0.2692  0.4625 -0.1669
    7HTM     S411126   6.664   5.248   2.241  0.4239 -0.0304 -0.0780
    8TAL    C3511127   6.384   5.043   2.028 -0.6659  0.0156 -0.1039
    8TAL    C3611128   6.382   5.006   1.881 -0.1098 -0.3086  0.1679
    8TAL    C3711129   6.260   4.921   1.843  0.8312 -0.7368  0.1103
    8TAL    C3811130   6.213   4.914   1.702  0.4130 -0.3373 -0.6817
    8TAL    C3911131   6.084   4.837   1.687 -0.2941  0.0409  0.1633
    8TAL    C4011132   6.060   4.809   1.535 -0.3520  0.1078 -0.7574
    9HTM    C4111133   6.387   5.250   2.255  0.1267 -0.3910 -0.1034
    9HTM    C4211134   6.354   5.382   2.240  0.1562 -0.4234 -0.4708
    9HTM    C4311135   6.217   5.412   2.272  0.2263 -0.2639 -0.3141
    9HTM    C4411136   6.145   5.303   2.310  0.2504 -0.1097  0.1729
    9HTM     S511137   6.245   5.153   2.310  0.1857 -0.1543  0.4733
   10TAL    C4511138   6.150   5.549   2.273 -0.2104  0.0167 -1.3401
   10TAL    C4611139   6.231   5.668   2.222 -0.1394  0.0252 -0.4965
   10TAL    C4711140   6.279   5.669   2.074 -0.5399  0.4951  0.2203
   10TAL    C4811141   6.350   5.791   2.013  0.1680  0.3383  0.4253
   10TAL    C4911142   6.456   5.857   2.102  0.7697 -0.1832 -0.0473
   10TAL    C5011143   6.520   5.985   2.058  0.1147 -0.5438  0.7157
   11HTM    C5111144   5.998   5.283   2.343 -0.0648  0.2674 -0.2546
   11HTM    C5211145   5.953   5.269   2.471  0.2084  0.5314 -0.1310
   11HTM    C5311146   5.810   5.280   2.485  0.2217  0.3901  0.1280
   11HTM    C5411147   5.746   5.302   2.367 -0.0415  0.0181  0.2018
   11HTM     S611148   5.861   5.310   2.229 -0.3284 -0.1844 -0.0519
   12TAL    C5511149   5.738   5.258   2.616  0.1439 -0.3448 -0.3410
   12TAL    C5611150   5.715   5.385   2.692  0.1270  0.4237 -0.3692
   12TAL    C5711151   5.816   5.497   2.719 -0.4598  0.0901  0.1340
   12TAL    C5811152   5.966   5.472   2.722 -0.3824 -0.1049  0.1698
   12TAL    C5911153   6.028   5.611   2.696  0.2436 -0.6999 -0.4070
   12TAL    C6011154   6.184   5.607   2.685  0.7197 -0.3600  0.0447
   13HTM    C6111155   5.607   5.337   2.338 -0.2878  0.5248 -0.1160
   13HTM    C6211156   5.559   5.422   2.243 -0.6847  0.8368  0.3608
   13HTM    C6311157   5.416   5.431   2.240 -0.7102  0.5717  0.7473
   13HTM    C6411158   5.354   5.352   2.333 -0.3322  0.0575  0.5655
   13HTM     S711159   5.474   5.260   2.432  0.0881 -0.1336 -0.1137
   14TAL    C6511160   5.344   5.519   2.139 -0.6971  0.1906 -0.4264
   14TAL    C6611161   5.405   5.652   2.085 -0.0720  0.1351 -0.2085
   14TAL    C6711162   5.477   5.743   2.192 -0.2467  0.1907 -0.1043
   14TAL    C6811163   5.511   5.881   2.138 -0.1155  0.0861 -0.1236
   14TAL    C6911164   5.561   5.978   2.243 -0.3325  0.4795 -0.2979
   14TAL    C7011165   5.612   6.102   2.184  0.5197 -0.0990 -0.8360
   15HTM    C7111166   5.214   5.331   2.359 -0.3400  0.5741  0.1496
   15HTM    C7211167   5.170   5.258   2.466 -0.4475  0.5708  0.1031
   15HTM    C7311168   5.026   5.254   2.478 -0.4740  0.1705 -0.3188
   15HTM    C7411169   4.961   5.323   2.380 -0.3863 -0.1317 -0.5938
   15HTM     S811170   5.077   5.400   2.265 -0.2631  0.0677 -0.3395
   16TAL    C7511171   4.970   5.185   2.602 -0.6367 -0.3887  0.7123
   16TAL    C7611172   4.996   5.261   2.738  0.0090  0.3232 -0.2510
   16TAL    C7711173   4.959   5.408   2.730  0.2607  0.0700  0.0467
   16TAL    C7811174   4.811   5.452   2.734 -0.9631  0.0269  0.2681
   16TAL    C7911175   4.777   5.601   2.712 -0.3388  0.1180 -0.5587
   16TAL    C8011176   4.852   5.669   2.591 -0.2067 -0.6386  0.5203
   17HTM    C8111177   4.820   5.361   2.364 -0.0296 -0.5008  0.1834
   17HTM    C8211178   4.769   5.459   2.284  0.0207 -0.5844  0.0473
   17HTM    C8311179   4.626   5.470   2.290  0.0217 -0.5405 -0.0119
   17HTM    C8411180   4.568   5.380   2.375 -0.0280 -0.4234  0.0793
   17HTM     S911181   4.690   5.274   2.453 -0.0805 -0.3590  0.2483
   18TAL    C8511182   4.551   5.575   2.219 -0.1951  0.1710  0.7013
   18TAL    C8611183   4.615   5.712   2.193 -0.0655  0.2377 -0.2882
   18TAL    C8711184   4.589   5.805   2.318 -0.3922 -0.3633 -0.6598
   18TAL    C8811185   4.645   5.940   2.286 -0.1496 -0.2001 -0.1289
   18TAL    C8911186   4.609   6.054   2.380 -0.1256 -0.0348  0.5596
   18TAL    C9011187   4.696   6.076   2.501  0.0260 -0.4987 -0.3982
   19HTM    C9111188   4.427   5.340   2.404 -0.2395 -0.0287  0.4724
   19HTM    C9211189   4.384   5.215   2.437 -0.4706  0.1161  0.7254
   19HTM    C9311190   4.241   5.205   2.450 -0.5105  0.3443  0.4796
   19HTM    C9411191   4.175   5.322   2.427 -0.3099  0.3739  0.0388
   19HTM    S1011192   4.290   5.456   2.387 -0.0535  0.1137 -0.1005
   20TAL    C9511193   4.185   5.074   2.491 -0.0402  0.0006 -0.8947
   20TAL    C9611194   4.269   4.983   2.583  0.2123  0.5517 -0.6610
   20TAL    C9711195   4.204   4.845   2.600  0.0161  0.0749  0.4726
   20TAL    C9811196   4.271   4.758   2.706  0.3188  0.0630 -0.2156
   20TAL    C9911197   4.204   4.626   2.721 -0.1100 -0.3602  0.3618
   20TAL   C10011198   4.293   4.520   2.788  0.0333  0.0900  0.4733
   21HTM   C10111199   4.038   5.365   2.455  0.0713  0.4990 -0.3447
   21HTM   C10211200   4.003   5.484   2.511 -0.0019  0.6638 -0.7385
   21HTM   C10311201   3.861   5.499   2.531 -0.0057  0.6166 -0.7310
   21HTM   C10411202   3.788   5.391   2.490  0.0644  0.4157 -0.3316
   21HTM    S1111203   3.894   5.262   2.423  0.1413  0.2697  0.0693
   22TAL   C10511204   3.812   5.619   2.601  0.3250 -0.9826 -0.3754
   22TAL   C10611205   3.768   5.581   2.745  0.8032 -0.2990  0.3905
   22TAL   C10711206   3.730   5.689   2.845  0.8837  0.1675  0.1217
   22TAL   C10811207   3.620   5.791   2.805 -0.1286  0.4321 -0.0387
   22TAL   C10911208   3.483   5.727   2.808 -0.0426  0.3864  0.4887
   22TAL   C11011209   3.359   5.819   2.789 -0.0909  0.3203  0.4200
   23HTM   C11111210   3.648   5.366   2.480 -0.2514 -0.4375  0.3923
   23HTM   C11211211   3.587   5.253   2.434 -0.5217 -0.2911  0.3865
   23HTM   C11311212   3.445   5.267   2.416 -0.4543  0.1247  0.1558
   23HTM   C11411213   3.397   5.390   2.448 -0.1327  0.2952 -0.0143
   23HTM    S1211214   3.529   5.500   2.505  0.1122 -0.0589  0.1047
   24TAL   C11511215   3.359   5.147   2.378  0.2760 -0.0903 -0.7794
   24TAL   C11611216   3.332   5.044   2.487  0.5675 -0.6735  0.0237
   24TAL   C11711217   3.269   4.928   2.414 -0.6240  0.9480 -0.7093
   24TAL   C11811218   3.212   4.823   2.504 -0.6872 -0.5741 -0.6150
   24TAL   C11911219   3.315   4.724   2.530 -0.4008 -0.0026 -0.1206
   24TAL   C12011220   3.249   4.612   2.610 -0.5470  0.5417 -0.1942
   25HTM   C12111221   3.268   5.454   2.431 -0.1370 -0.2055 -0.1809
   25HTM   C12211222   3.151   5.410   2.377  0.1875 -0.2134 -0.8847
   25HTM   C12311223   3.049   5.512   2.370  0.1616 -0.2685 -1.3288
   25HTM   C12411224   3.088   5.633   2.419 -0.1824 -0.3026 -0.9641
   25HTM    S1311225   3.259   5.628   2.478 -0.5030 -0.2677 -0.0235
   26TAL   C12511226   2.911   5.474   2.317  0.0316 -0.4392  0.3013
   26TAL   C12611227   2.886   5.336   2.254 -0.4433  0.1466 -0.7046
   26TAL   C12711228   2.749   5.322   2.191  0.3541  0.6402  0.0337
   26TAL   C12811229   2.718   5.179   2.158  0.4949  0.0756  0.6104
   26TAL   C12911230   2.588   5.155   2.088 -0.2179  0.0244  0.0554
   26TAL   C13011231   2.544   5.013   2.083 -0.3624 -0.2089  0.2096
   27HTM   C13111232   3.026   5.766   2.417 -0.3069 -0.2072  0.0698
   27HTM   C13211233   3.092   5.880   2.452  0.1650 -0.3567 -0.3088
   27HTM   C13311234   3.023   6.001   2.413  0.6307 -0.2000 -0.6529
   27HTM   C13411235   2.905   5.978   2.348  0.5141  0.0687 -0.5367
   27HTM    S1411236   2.872   5.802   2.331 -0.1985  0.1453  0.0207
   28TAL   C13511237   3.071   6.141   2.455 -0.6564 -0.0517  0.0478
   28TAL   C13611238   3.153   6.167   2.586 -0.0267  0.1300 -0.1465
   28TAL   C13711239   3.219   6.303   2.590 -0.1249 -0.3368 -0.1636
   28TAL   C13811240   3.135   6.428   2.600  0.4159  0.3962  0.2697
   28TAL   C13911241   3.041   6.443   2.711 -0.3784  0.3676  0.2462
   28TAL   C14011242   3.110   6.451   2.848  0.8865 -0.0114  0.2036
   29HTM   C14111243   2.813   6.072   2.294 -0.6481  0.2792  0.4703
   29HTM   C14211244   2.676   6.074   2.289 -0.6394  0.6840  0.3633
   29HTM   C14311245   2.622   6.186   2.215 -0.2383  0.5105 -0.1980
   29HTM   C14411246   2.718   6.268   2.164  0.0591 -0.0268 -0.5192
   29HTM    S1511247   2.884   6.212   2.204 -0.1464 -0.3578 -0.1344
   30TAL   C14511248   2.479   6.208   2.191 -0.1046  0.0273 -0.0436
   30TAL   C14611249   2.400   6.284   2.290  0.6738 -0.1305 -0.1996
   30TAL   C14711250   2.254   6.315   2.254  0.5779 -0.2989 -0.2036
   30TAL   C14811251   2.169   6.335   2.375 -0.8361  0.2626  0.1960
   30TAL   C14911252   2.025   6.365   2.331 -0.4782 -0.2595  0.6337
   30TAL   C15011253   1.931   6.389   2.458  0.4937 -0.1426 -0.2345
   31HTM   C15111254   2.709   6.393   2.089  0.0667  0.1401 -0.0602
   31HTM   C15211255   2.779   6.418   1.975 -0.0151  0.2437 -0.0882
   31HTM   C15311256   2.759   6.550   1.923 -0.1642  0.2434 -0.0332
   31HTM   C15411257   2.674   6.627   1.997 -0.1958  0.1396  0.0369
   31HTM    S1611258   2.611   6.536   2.140 -0.0386  0.0338  0.0389
   32TAL   C15511259   2.823   6.578   1.785  0.0731 -0.6904 -0.2120
   32TAL   C15611260   2.838   6.471   1.685  0.3000  0.0047 -0.1184
   32TAL   C15711261   2.888   6.504   1.547  0.2323 -0.3986  0.1425
   32TAL   C15811262   3.028   6.562   1.516 -0.3607  0.4565  0.1884
   32TAL   C15911263   3.163   6.490   1.561  0.3105  0.2204 -0.4322
   32TAL   C16011264   3.205   6.348   1.520  0.5651 -0.5256  0.5180
   33HTM   C16111265   2.625   6.763   1.981  0.3883  0.2437 -0.0873
   33HTM   C16211266   2.595   6.823   1.863  0.3241  0.4482  0.0334
   33HTM   C16311267   2.532   6.952   1.878  0.0681  0.2933  0.2908
   33HTM   C16411268   2.514   6.989   2.008 -0.0631 -0.0297  0.3663
   33HTM    S1711269   2.576   6.864   2.122  0.1281 -0.1639  0.1162
   34TAL   C16511270   2.485   7.026   1.748 -0.2380  0.2124  0.4758
   34TAL   C16611271   2.335   7.061   1.742  0.2991  0.1995  0.5838
   34TAL   C16711272   2.293   7.072   1.591 -0.1618 -0.3029 -0.5066
   34TAL   C16811273   2.146   7.104   1.558  0.0043  0.3256  0.1432
   34TAL   C16911274   2.037   7.016   1.623  0.1171 -0.2869  0.0962
   34TAL   C17011275   2.009   6.878   1.562  0.3838 -0.1756 -0.0766
   35HTM   C17111276   2.444   7.098   2.059  0.1225 -0.2567  0.2079
   35HTM   C17211277   2.487   7.227   2.041  0.4667 -0.3340  0.4491
   35HTM   C17311278   2.395   7.326   2.092  0.6253 -0.1779  0.4309
   35HTM   C17411279   2.283   7.273   2.148  0.4019  0.0191  0.1759
   35HTM    S1811280   2.284   7.093   2.143 -0.0295  0.0222 -0.0630
   36TAL   C17511281   2.427   7.472   2.074  0.2693  0.8037 -0.3258
   36TAL   C17611282   2.513   7.538   2.182 -0.0994 -0.5339 -0.1111
   36TAL   C17711283   2.546   7.688   2.160  0.2828  0.7235  0.2356
   36TAL   C17811284   2.682   7.724   2.218  0.3635 -0.2799 -0.4027
   36TAL   C17911285   2.731   7.868   2.210  0.5939 -0.0969 -0.8115
   36TAL   C18011286   2.628   7.969   2.270 -0.4159 -0.1202 -0.1721
   37HTM   C18111287   2.171   7.334   2.226  0.3534 -0.4916 -0.0920
   37HTM   C18211288   2.171   7.459   2.280  0.8568 -0.6688  0.3253
   37HTM   C18311289   2.059   7.485   2.366  0.9159 -0.4787  0.3459
   37HTM   C18411290   1.973   7.379   2.378  0.4578 -0.1573 -0.0557
   37HTM    S1911291   2.028   7.238   2.280 -0.0880 -0.0682 -0.4947
   38TAL   C18511292   2.039   7.617   2.450  0.0644  0.3498  0.0312
   38TAL   C18611293   1.931   7.727   2.417 -0.3666  0.5433  0.2832
   38TAL   C18711294   1.790   7.680   2.441 -0.4808  0.0125  0.2512
   38TAL   C18811295   1.685   7.775   2.379  0.2832  0.2191  0.6152
   38TAL   C18911296   1.550   7.735   2.422  0.6660  0.2247 -0.4719
   38TAL   C19011297   1.457   7.838   2.377  0.2183 -0.7322  0.3160
   39HTM   C19111298   1.868   7.352   2.476  0.2131 -0.1756 -0.0712
   39HTM   C19211299   1.732   7.339   2.472  0.1537  0.4411 -0.1397
   39HTM   C19311300   1.674   7.306   2.599 -0.0743  0.7992 -0.1487
   39HTM   C19411301   1.765   7.293   2.700 -0.1887  0.4559 -0.0867
   39HTM    S2011302   1.933   7.323   2.641 -0.0161 -0.3530 -0.0121
   40TAL   C19511303   1.522   7.303   2.613 -0.4362 -0.1535 -0.0782
   40TAL   C19611304   1.452   7.429   2.556  0.6317 -0.0380  0.2667
   40TAL   C19711305   1.309   7.395   2.532  0.3633 -0.0530 -0.3605
   40TAL   C19811306   1.244   7.480   2.419 -0.1459 -0.2095 -1.1763
   40TAL   C19911307   1.095   7.456   2.400 -0.5258 -0.2203 -0.1575
   40TAL   C20011308   1.010   7.496   2.519  0.0713  0.0665 -0.0235
   41HTM   C20111309   1.755   7.267   2.842 -0.4358  0.5161  0.5343
   41HTM   C20211310   1.816   7.328   2.948 -1.0636  0.7126  0.7875
   41HTM   C20311311   1.785   7.269   3.075 -1.0838  0.3605  0.6194
   41HTM   C20411312   1.700   7.163   3.067 -0.4712 -0.1044  0.2380
   41HTM    S2111313   1.653   7.129   2.896  0.1835 -0.1341  0.0604
   42TAL   C20511314   1.856   7.335   3.191  0.4246  0.0958  0.4445
   42TAL   C20611315   1.993   7.302   3.248  0.0627 -0.0936 -0.1682
   42TAL   C20711316   2.061   7.173   3.201  1.0263 -0.2781 -0.0193
   42TAL   C20811317   2.207   7.166   3.251  0.1430  0.1023  0.2249
   42TAL   C20911318   2.292   7.052   3.194 -0.1270 -0.4206 -0.0956
   42TAL   C21011319   2.445   7.049   3.221  0.2086  0.1708  0.2257
   43HTM   C21111320   1.631   7.083   3.172 -0.0509 -0.0639 -0.1844
   43HTM   C21211321   1.536   6.987   3.150 -0.2187  0.0892 -0.1273
   43HTM   C21311322   1.496   6.916   3.268 -0.2449  0.1371 -0.1072
   43HTM   C21411323   1.560   6.957   3.381 -0.0970  0.0211 -0.1491
   43HTM    S2211324   1.677   7.090   3.346  0.0881 -0.1594 -0.2174
   44TAL   C21511325   1.376   6.819   3.271 -0.0001  0.6844  0.3725
   44TAL   C21611326   1.310   6.755   3.146 -0.3414 -0.2617  0.1992
   44TAL   C21711327   1.400   6.691   3.035  0.1686 -0.5664 -0.0481
   44TAL   C21811328   1.324   6.630   2.916 -0.1325  0.4587  0.1485
   44TAL   C21911329   1.404   6.579   2.799 -0.5102  0.2312  0.0112
   44TAL   C22011330   1.327   6.516   2.683 -0.1501  0.1440 -0.1432
   45HTM   C22111331   1.560   6.921   3.518 -0.2209 -0.3387 -0.2118
   45HTM   C22211332   1.546   7.008   3.622 -0.4135 -0.0737 -0.4569
   45HTM   C22311333   1.505   6.946   3.745 -0.3837  0.1988 -0.3072
   45HTM   C22411334   1.487   6.811   3.735 -0.1683  0.1412  0.0521
   45HTM    S2311335   1.522   6.752   3.567  0.0149 -0.2645  0.2306
   46TAL   C22511336   1.480   7.034   3.865 -0.0441 -0.3001 -0.4388
   46TAL   C22611337   1.577   7.139   3.910 -0.2136 -0.0788  0.7831
   46TAL   C22711338   1.539   7.201   4.043 -0.0898  0.1744 -0.2134
   46TAL   C22811339   1.632   7.318   4.077  0.0396  0.1788  0.2651
   46TAL   C22911340   1.597   7.379   4.215 -0.1850  0.1498  0.0230
   46TAL   C23011341   1.694   7.472   4.275 -0.4183  0.0566 -0.4837
   47HTM   C23111342   1.443   6.709   3.834  0.8763 -0.3623  0.2483
   47HTM   C23211343   1.425   6.711   3.969  0.6426 -0.0689  0.2135
   47HTM   C23311344   1.373   6.587   4.023  0.0066  0.2375  0.3197
   47HTM   C23411345   1.352   6.491   3.928 -0.2448  0.1776  0.4351
   47HTM    S2411346   1.396   6.550   3.763  0.3066 -0.2742  0.4189
   48TAL   C23511347   1.352   6.562   4.174  0.0526 -0.0069  0.2104
   48TAL   C23611348   1.266   6.660   4.260 -0.1976 -0.6323  0.0990
   48TAL   C23711349   1.126   6.678   4.198  0.6735 -0.3767 -0.3441
   48TAL   C23811350   1.034   6.775   4.272  0.2473  0.3267 -0.2325
   48TAL   C23911351   1.080   6.922   4.280  0.0093 -0.0008 -0.2958
   48TAL   C24011352   0.996   6.991   4.383  0.0250  0.1802  0.6703
    1HTM     C111353   5.081   7.132   1.066 -0.3129 -0.5284 -0.1750
    1HTM     C211354   5.003   7.021   1.069 -0.9162 -0.1016  0.3437
    1HTM     C311355   4.865   7.046   1.035 -0.8793  0.5550  0.6616
    1HTM     C411356   4.838   7.176   1.007 -0.2475  0.6285  0.3852
    1HTM     S111357   4.986   7.279   1.021  0.3540 -0.1315 -0.3034
    2TAL     C511358   4.768   6.925   1.053  0.3915  0.1280 -0.2817
    2TAL     C611359   4.738   6.832   0.934  0.4621 -0.0304  0.0842
    2TAL     C711360   4.652   6.721   0.983  0.3968  0.3227 -0.0791
    2TAL     C811361   4.616   6.618   0.882  0.2887 -0.0564  0.6991
    2TAL     C911362   4.549   6.495   0.937 -0.5749  0.1214 -0.1353
    2TAL    C1011363   4.459   6.416   0.839 -0.1841 -0.5959  0.6321
    3HTM    C1111364   4.718   7.231   0.966  0.5095  0.0048 -0.1342
    3HTM    C1211365   4.613   7.184   0.892  0.6573 -0.1266 -0.2606
    3HTM    C1311366   4.501   7.274   0.887  0.4008 -0.4396 -0.0795
    3HTM    C1411367   4.519   7.389   0.959  0.0570 -0.5470  0.1847
    3HTM     S211368   4.681   7.393   1.037  0.0305 -0.2588  0.2259
    4TAL    C1511369   4.363   7.248   0.826 -0.0427  0.4897  0.7655
    4TAL    C1611370   4.321   7.102   0.791 -0.9155 -0.1944  0.6226
    4TAL    C1711371   4.322   6.993   0.891  0.4714 -0.1190  0.2821
    4TAL    C1811372   4.243   6.861   0.847 -0.1515  0.3586 -0.3614
    4TAL    C1911373   4.088   6.862   0.845  0.6903  0.4989 -0.2329
    4TAL    C2011374   4.016   6.897   0.978 -0.1895 -0.0667 -0.7093
    5HTM    C2111375   4.435   7.505   0.982  0.1556  0.6213  0.1370
    5HTM    C2211376   4.465   7.634   0.952 -0.2296  0.7479  0.2829
    5HTM    C2311377   4.352   7.723   0.957 -0.5586  0.3457  0.0687
    5HTM    C2411378   4.235   7.662   0.991 -0.4242 -0.0876 -0.2406
    5HTM     S311379   4.259   7.485   1.020  0.1327 -0.0207 -0.2855
    6TAL    C2511380   4.369   7.874   0.931 -0.4203  0.1785  0.3316
    6TAL    C2611381   4.435   7.966   1.034 -0.2583 -0.3641 -0.2956
    6TAL    C2711382   4.371   7.975   1.176 -0.1849  0.1251 -0.1830
    6TAL    C2811383   4.216   8.006   1.178 -0.6307  0.4198 -0.1534
    6TAL    C2911384   4.153   8.022   1.312  0.0126  0.5053  0.0689
    6TAL    C3011385   4.004   8.044   1.322 -0.1065  0.1729  0.8875
    7HTM    C3111386   4.092   7.697   0.991 -0.2489  0.0712  0.2728
    7HTM    C3211387   3.998   7.632   1.065 -0.4206  0.1538  0.1300
    7HTM    C3311388   3.865   7.687   1.053 -0.3762  0.1929 -0.1702
    7HTM    C3411389   3.858   7.794   0.968 -0.1705  0.1396 -0.2563
    7HTM     S411390   4.019   7.834   0.898 -0.0156  0.0352  0.0374
    8TAL    C3511391   3.742   7.628   1.127 -0.3361  0.3151  0.5302
    8TAL    C3611392   3.698   7.487   1.079 -0.2347 -0.2042 -0.1136
    8TAL    C3711393   3.574   7.436   1.153  0.3473  0.0036 -0.4058
    8TAL    C3811394   3.508   7.311   1.085 -0.3311  0.2195  0.0761
    8TAL    C3911395   3.361   7.310   1.118  0.5559  0.1546 -0.4434
    8TAL    C4011396   3.296   7.174   1.078  0.2850 -0.0140  0.0087
    9HTM    C4111397   3.750   7.890   0.929 -0.0898  0.2797 -0.2501
    9HTM    C4211398   3.770   8.010   0.868 -0.1596  0.2689 -0.2951
    9HTM    C4311399   3.648   8.078   0.833 -0.2002  0.3419 -0.0120
    9HTM    C4411400   3.535   8.010   0.868 -0.1614  0.4088  0.2490
    9HTM     S511401   3.574   7.853   0.947 -0.0699  0.3846  0.1566
   10TAL    C4511402   3.660   8.212   0.764  0.3329  0.3273  0.0401
   10TAL    C4611403   3.665   8.220   0.609  0.0634 -0.3693 -0.5276
   10TAL    C4711404   3.769   8.128   0.533 -0.2515  0.0676 -0.0646
   10TAL    C4811405   3.756   7.978   0.514 -0.8928 -0.2902  0.4080
   10TAL    C4911406   3.615   7.934   0.472 -0.3088 -1.0052  0.5160
   10TAL    C5011407   3.582   7.791   0.477  1.2230 -0.1434  0.9374
   11HTM    C5111408   3.396   8.043   0.840  0.5589  0.1626 -0.2457
   11HTM    C5211409   3.293   7.955   0.857  0.9266 -0.2463 -0.1321
   11HTM    C5311410   3.164   8.011   0.829  0.6615 -0.7253  0.1326
   11HTM    C5411411   3.167   8.141   0.791  0.0914 -0.6814  0.2209
   11HTM     S611412   3.336   8.205   0.787 -0.1565 -0.0263 -0.0254
   12TAL    C5511413   3.034   7.943   0.874  0.1947  0.2900  0.2626
   12TAL    C5611414   3.030   7.794   0.835  0.0312 -0.6181 -0.4138
   12TAL    C5711415   3.048   7.704   0.947 -0.6493 -0.7269 -0.0697
   12TAL    C5811416   3.103   7.568   0.917  0.1863  0.3928  0.9698
   12TAL    C5911417   3.231   7.537   0.833  0.5668 -0.5547 -0.9209
   12TAL    C6011418   3.355   7.631   0.850 -1.0642 -0.5413  0.2520
   13HTM    C6111419   3.064   8.243   0.750  0.3163 -0.1249 -0.1559
   13HTM    C6211420   3.084   8.374   0.720  0.4669 -0.1273 -0.0657
   13HTM    C6311421   2.964   8.445   0.686  0.5537  0.0238 -0.0554
   13HTM    C6411422   2.851   8.368   0.691  0.4693  0.1418 -0.1379
   13HTM     S711423   2.889   8.199   0.738  0.2720  0.0708 -0.2355
   14TAL    C6511424   2.958   8.591   0.635 -0.0238 -0.1009 -0.1226
   14TAL    C6611425   3.067   8.684   0.682 -0.0285 -0.2338  0.1364
   14TAL    C6711426   3.087   8.780   0.568  0.5764  0.0301 -0.0878
   14TAL    C6811427   3.206   8.871   0.604 -0.1515  0.2659 -0.2472
   14TAL    C6911428   3.290   8.934   0.501  0.2339 -0.2463  0.0706
   14TAL    C7011429   3.372   9.041   0.567 -0.6179 -0.1908  0.0591
   15HTM    C7111430   2.710   8.396   0.671 -0.0109  0.5755  0.4872
   15HTM    C7211431   2.604   8.338   0.735 -0.1067  0.6013  0.3534
   15HTM    C7311432   2.476   8.386   0.690 -0.0565  0.1836 -0.2486
   15HTM    C7411433   2.484   8.480   0.592  0.0777 -0.1622 -0.5739
   15HTM     S811434   2.655   8.517   0.549  0.1513  0.0161 -0.1417
   16TAL    C7511435   2.350   8.335   0.762 -0.2970  0.3575 -0.0891
   16TAL    C7611436   2.309   8.202   0.705  0.1707  0.8890 -0.5311
   16TAL    C7711437   2.172   8.153   0.753 -0.0200  0.5394 -0.1330
   16TAL    C7811438   2.052   8.234   0.710  0.0070 -0.2956 -0.3483
   16TAL    C7911439   1.924   8.189   0.764  0.1862  0.2766  0.4296
   16TAL    C8011440   1.812   8.282   0.711 -0.2397 -0.6692 -0.2204
   17HTM    C8111441   2.378   8.555   0.519  0.1565  0.3642  0.5325
   17HTM    C8211442   2.400   8.634   0.410  0.4472  0.6166  0.7712
   17HTM    C8311443   2.279   8.679   0.346  0.6161  0.6728  0.4900
   17HTM    C8411444   2.165   8.635   0.406  0.4544  0.4641  0.0368
   17HTM     S911445   2.202   8.532   0.550  0.0735  0.1773 -0.0707
   18TAL    C8511446   2.292   8.757   0.220  0.3665 -0.3061 -0.5330
   18TAL    C8611447   2.336   8.904   0.237 -0.3323  0.4860  0.2635
   18TAL    C8711448   2.337   8.967   0.100  0.0711  0.1082  0.4490
   18TAL    C8811449   2.369   9.116   0.103  0.4904 -0.3367  0.0571
   18TAL    C8911450   2.512   9.161   0.138 -0.1754  0.4265 -0.0550
   18TAL    C9011451   2.511   9.310   0.139  0.7426 -0.4963 -0.5771
   19HTM    C9111452   2.023   8.665   0.383  0.0697  0.1614  0.1200
   19HTM    C9211453   1.920   8.584   0.419  0.0635  0.3462  0.5273
   19HTM    C9311454   1.791   8.632   0.375  0.0220  0.3619  0.6676
   19HTM    C9411455   1.796   8.750   0.307 -0.0035  0.1881  0.3672
   19HTM    S1011456   1.966   8.809   0.291  0.0229 -0.0091 -0.1199
   20TAL    C9511457   1.676   8.545   0.407  0.9706  0.3514  0.2305
   20TAL    C9611458   1.569   8.613   0.497  0.0265  0.1587  0.0392
   20TAL    C9711459   1.615   8.603   0.643  0.0870  0.0536 -0.1156
   20TAL    C9811460   1.555   8.698   0.743  0.6777  0.0536  0.2317
   20TAL    C9911461   1.560   8.844   0.700  0.1324  1.2801 -0.0850
   20TAL   C10011462   1.485   8.924   0.805 -0.6947 -0.1876 -0.3635
   21HTM   C10111463   1.695   8.827   0.236  0.2065 -0.2768 -0.2629
   21HTM   C10211464   1.577   8.784   0.181  0.1538 -0.3018 -0.1314
   21HTM   C10311465   1.501   8.890   0.119 -0.0744 -0.2685  0.2024
   21HTM   C10411466   1.560   9.012   0.127 -0.1959 -0.2177  0.3255
   21HTM    S1111467   1.718   9.004   0.214 -0.0299 -0.2076  0.0270
   22TAL   C10511468   1.369   8.866   0.044  0.4646  0.0713 -0.4423
   22TAL   C10611469   1.352   8.742  -0.041 -0.1890  0.8933  0.1759
   22TAL   C10711470   1.467   8.718  -0.142 -0.2216 -0.3171 -0.4525
   22TAL   C10811471   1.439   8.586  -0.204  0.5604  0.4649 -0.3154
   22TAL   C10911472   1.535   8.555  -0.313 -1.0476 -0.1345  0.0341
   22TAL   C11011473   1.505   8.424  -0.388  0.5365 -0.2240  0.4221
   23HTM   C11111474   1.515   9.139   0.078 -0.0419 -0.1289  0.3402
   23HTM   C11211475   1.597   9.237   0.031 -0.0694 -0.2735 -0.0159
   23HTM   C11311476   1.528   9.359  -0.003 -0.0807 -0.3566 -0.2847
   23HTM   C11411477   1.393   9.353   0.017 -0.0620 -0.2753 -0.1332
   23HTM    S1211478   1.343   9.192   0.082 -0.0281 -0.0860  0.3641
   24TAL   C11511479   1.606   9.484  -0.047 -0.0989 -1.0932  0.4565
   24TAL   C11611480   1.758   9.500  -0.067 -0.0744  0.4161 -0.1123
   24TAL   C11711481   1.830   9.400  -0.158  0.1593  0.4319 -0.2913
   24TAL   C11811482   1.983   9.405  -0.145  0.0556  0.4144 -0.3659
   24TAL   C11911483   2.052   9.366  -0.010  0.3218  1.1321 -0.0100
   24TAL   C12011484   2.025   9.219   0.039 -0.0630 -0.4038 -0.0440
   25HTM   C12111485   1.282   9.448  -0.006 -0.0448  0.1277 -0.1584
   25HTM   C12211486   1.289   9.584  -0.013 -0.1256  0.1161 -0.4735
   25HTM   C12311487   1.162   9.649   0.006 -0.1349  0.0930 -0.4559
   25HTM   C12411488   1.059   9.563   0.028 -0.0613  0.0869 -0.1266
   25HTM    S1311489   1.113   9.391   0.026  0.0261  0.1101  0.1888
   26TAL   C12511490   1.134   9.800   0.001 -0.9322  0.0197  0.1099
   26TAL   C12611491   1.247   9.902   0.026  0.1072  0.4490  0.4403
   26TAL   C12711492   1.191  10.044   0.034 -0.2404  0.4946  0.4674
   26TAL   C12811493   1.293  10.150   0.068 -0.4987 -0.5073  0.8135
   26TAL   C12911494   1.222  10.289   0.071 -0.2866 -0.1434  0.2673
   26TAL   C13011495   1.310  10.406   0.073  0.3490 -0.7476 -0.6393
   27HTM   C13111496   0.920   9.591   0.062 -0.1121  0.5668 -0.2354
   27HTM   C13211497   0.811   9.631  -0.010 -0.4389  0.0504 -0.0353
   27HTM   C13311498   0.690   9.640   0.067 -0.3447 -0.5360  0.1868
   27HTM   C13411499   0.707   9.608   0.199  0.0539 -0.4669  0.1561
   27HTM    S1411500   0.877   9.562   0.235  0.3436  0.3507 -0.1582
   28TAL   C13511501   0.562   9.682   0.003 -0.7238 -0.0442 -0.0453
   28TAL   C13611502   0.426   9.676   0.070 -0.5437  0.1895  0.0371
   28TAL   C13711503   0.316   9.721  -0.026 -0.0809 -0.0459 -0.2658
   28TAL   C13811504   0.184   9.657   0.021 -0.2438 -0.0127  0.0019
   28TAL   C13911505   0.062   9.732  -0.031  0.3012 -0.2702 -0.0724
   28TAL   C14011506  -0.072   9.683   0.015 -0.5599  0.0669 -0.1804
   29HTM   C14111507   0.621   9.610   0.315 -0.0610  0.3643  0.3629
   29HTM   C14211508   0.606   9.503   0.398  0.1505  0.4656  0.5304
   29HTM   C14311509   0.543   9.535   0.524  0.1852  0.5583  0.5239
   29HTM   C14411510   0.510   9.667   0.536  0.0003  0.5277  0.3513
   29HTM    S1511511   0.555   9.761   0.389 -0.2340  0.3782  0.1824
   30TAL   C14511512   0.524   9.426   0.628  0.5532  0.4010  0.3327
   30TAL   C14611513   0.413   9.427   0.728  0.2623 -0.1330 -0.2492
   30TAL   C14711514   0.446   9.321   0.825  0.1141 -0.4070 -0.5026
   30TAL   C14811515   0.320   9.275   0.897  0.0290 -0.6413  0.5483
   30TAL   C14911516   0.291   9.125   0.925  0.9404  0.2220 -1.0939
   30TAL   C15011517   0.150   9.096   0.972 -0.0300  0.2914 -0.1514
   31HTM   C15111518   0.469   9.749   0.643  0.0660 -0.6509  0.0417
   31HTM   C15211519   0.364   9.834   0.662 -0.1648 -0.9010 -0.0967
   31HTM   C15311520   0.361   9.893   0.793 -0.1590 -0.4772 -0.2847
   31HTM   C15411521   0.463   9.852   0.874  0.0762  0.0960 -0.2898
   31HTM    S1611522   0.572   9.736   0.790  0.3104  0.1454 -0.0556
   32TAL   C15511523   0.249   9.995   0.831 -0.9183 -0.1484 -0.0680
   32TAL   C15611524   0.123   9.990   0.752  0.2536 -0.2606  0.6612
   32TAL   C15711525   0.027  10.096   0.794  0.2524 -0.1621 -0.1359
   32TAL   C15811526  -0.096  10.114   0.719  0.2210  0.7359 -0.0854
   32TAL   C15911527  -0.144  10.252   0.696  0.1608 -0.0551  0.4267
   32TAL   C16011528  -0.257  10.282   0.596 -0.1525 -0.4772 -0.4551
   33HTM   C16111529   0.502   9.886   1.009 -0.0731 -0.2769  0.2811
   33HTM   C16211530   0.456   9.984   1.091 -0.3934 -0.3603  0.2026
   33HTM   C16311531   0.527   9.994   1.216 -0.5161 -0.1221  0.2540
   33HTM   C16411532   0.627   9.903   1.229 -0.2895  0.1431  0.3720
   33HTM    S1711533   0.640   9.797   1.084  0.0996  0.1121  0.4273
   34TAL   C16511534   0.488  10.105   1.318  0.9305 -0.3149 -0.5219
   34TAL   C16611535   0.342  10.131   1.352 -0.4182  0.4302 -0.7460
   34TAL   C16711536   0.253  10.012   1.385 -0.3008  0.1644  0.1168
   34TAL   C16811537   0.268   9.940   1.520 -0.4308 -0.8750  0.1866
   34TAL   C16911538   0.178   9.817   1.522  0.8290  0.3376 -0.0346
   34TAL   C17011539   0.200   9.714   1.632  0.0743  0.2208 -0.7673
   35HTM   C17111540   0.726   9.875   1.335 -0.1857 -0.1281  0.4381
   35HTM   C17211541   0.809   9.959   1.403 -0.3464 -0.0966  0.5949
   35HTM   C17311542   0.914   9.891   1.476 -0.2407 -0.0346  0.5009
   35HTM   C17411543   0.911   9.755   1.462  0.0007 -0.0189  0.2722
   35HTM    S1811544   0.774   9.702   1.357  0.1140 -0.0816  0.1572
   36TAL   C17511545   1.009   9.976   1.561  0.0578  0.9473 -0.1355
   36TAL   C17611546   1.114  10.046   1.481 -0.7045 -0.1262  0.9269
   36TAL   C17711547   1.210  10.119   1.574  0.0453  0.5418 -0.1392
   36TAL   C17811548   1.323  10.040   1.648  0.2400  0.4366  0.1569
   36TAL   C17911549   1.419   9.942   1.575 -0.1926  0.3019  0.2646
   36TAL   C18011550   1.520   9.870   1.672  0.2396  0.1830  0.4228
   37HTM   C18111551   1.000   9.656   1.503  0.2951  0.3107 -0.4069
   37HTM   C18211552   0.980   9.524   1.479  0.7674  0.3731 -1.1975
   37HTM   C18311553   1.060   9.437   1.563  0.7430  0.1546 -1.3986
   37HTM   C18411554   1.140   9.504   1.650  0.2522 -0.0743 -0.7613
   37HTM    S1911555   1.122   9.683   1.633 -0.2210 -0.0315  0.1492
   38TAL   C18511556   1.044   9.287   1.556 -0.4411  0.3218 -0.1944
   38TAL   C18611557   0.912   9.244   1.622 -0.5555 -0.3766 -0.1163
   38TAL   C18711558   0.884   9.094   1.623  0.0934 -0.0093  0.2966
   38TAL   C18811559   0.743   9.078   1.671 -0.1811 -0.6699  0.2481
   38TAL   C18911560   0.685   8.939   1.670 -0.0318 -0.3128 -0.3786
   38TAL   C19011561   0.545   8.950   1.727  0.0838  0.6536 -0.2049
   39HTM   C19111562   1.228   9.470   1.756  0.4349  0.2032  0.2530
   39HTM   C19211563   1.360   9.501   1.762  0.3857  0.3816  0.4230
   39HTM   C19311564   1.425   9.458   1.883  0.3312  0.3066  0.4252
   39HTM   C19411565   1.342   9.393   1.969  0.3389  0.0710  0.2570
   39HTM    S2011566   1.174   9.382   1.904  0.4161 -0.0755  0.0813
   40TAL   C19511567   1.567   9.507   1.916  0.1580 -0.2693 -0.0368
   40TAL   C19611568   1.675   9.423   1.844 -0.0162  0.2378  0.4928
   40TAL   C19711569   1.711   9.287   1.897  0.3636  0.0747 -0.1279
   40TAL   C19811570   1.773   9.273   2.038 -0.2468  0.3289  0.6006
   40TAL   C19911571   1.797   9.125   2.081  0.3982 -0.3302 -0.3412
   40TAL   C20011572   1.833   9.124   2.233  0.0092 -0.0308  0.3282
   41HTM   C20111573   1.364   9.332   2.102  0.1135 -0.1977 -0.0906
   41HTM   C20211574   1.462   9.355   2.194  0.1546 -0.2432 -0.1231
   41HTM   C20311575   1.444   9.282   2.317  0.1484 -0.2156 -0.1076
   41HTM   C20411576   1.332   9.204   2.319  0.1025 -0.1489 -0.0635
   41HTM    S2111577   1.240   9.217   2.164  0.0633 -0.1157 -0.0376
   42TAL   C20511578   1.532   9.282   2.437 -0.0182 -0.9904 -0.0109
   42TAL   C20611579   1.659   9.377   2.441  0.4436  0.3925  0.2044
   42TAL   C20711580   1.699   9.394   2.589  0.4389  0.5288 -0.0840
   42TAL   C20811581   1.794   9.508   2.617  0.6395  0.6329 -0.1004
   42TAL   C20911582   1.759   9.649   2.583  0.2764  0.2019 -0.4179
   42TAL   C21011583   1.870   9.748   2.637  0.3236  0.1817  0.7993
   43HTM   C21111584   1.260   9.136   2.426  0.1284 -0.6310 -0.5084
   43HTM   C21211585   1.148   9.177   2.492  0.0300 -0.3593 -0.8374
   43HTM   C21311586   1.095   9.078   2.582 -0.0481  0.0408 -0.4401
   43HTM   C21411587   1.166   8.962   2.584 -0.0094  0.0745  0.1918
   43HTM    S2211588   1.307   8.968   2.472  0.1299 -0.4003  0.3354
   44TAL   C21511589   0.966   9.087   2.667 -0.6608  0.2012  0.5569
   44TAL   C21611590   0.835   9.112   2.593 -0.1926  0.2988 -0.6165
   44TAL   C21711591   0.806   9.238   2.516 -0.1010 -0.3024 -0.0449
   44TAL   C21811592   0.835   9.370   2.590  0.6810 -0.4022 -0.3735
   44TAL   C21911593   0.765   9.488   2.523  0.3737 -0.0462  0.0817
   44TAL   C22011594   0.810   9.625   2.563 -0.6723 -0.0596 -1.0647
   45HTM   C22111595   1.149   8.831   2.659 -0.5240 -0.4413  0.0551
   45HTM   C22211596   1.036   8.766   2.700 -0.3184 -0.6566  0.2871
   45HTM   C22311597   1.057   8.628   2.733  0.0229 -0.6051  0.2912
   45HTM   C22411598   1.186   8.586   2.717  0.0775 -0.3502  0.0627
   45HTM    S2311599   1.292   8.720   2.659 -0.3007 -0.1538 -0.1776
   46TAL   C22511600   0.945   8.535   2.779  0.0715  0.5308 -0.7244
   46TAL   C22611601   0.806   8.586   2.799  0.2098  0.1708  0.0206
   46TAL   C22711602   0.710   8.468   2.809 -0.1061 -0.1510 -0.1718
   46TAL   C22811603   0.576   8.517   2.862  0.3834  0.3774  0.2018
   46TAL   C22911604   0.480   8.403   2.881  0.1260  0.3367 -0.1942
   46TAL   C23011605   0.349   8.452   2.940  0.2693  0.0017  0.1618
   47HTM   C23111606   1.259   8.459   2.722 -0.0903  0.0441  0.0500
   47HTM   C23211607   1.393   8.438   2.736 -0.1039 -0.2065 -0.1845
   47HTM   C23311608   1.435   8.304   2.702 -0.4055 -0.2723 -0.2979
   47HTM   C23411609   1.333   8.223   2.663 -0.6219 -0.0728 -0.1502
   47HTM    S2411610   1.175   8.310   2.665 -0.4603  0.2163  0.1463
   48TAL   C23511611   1.584   8.265   2.715 -0.0029  0.1967  0.4150
   48TAL   C23611612   1.614   8.114   2.706  0.5075  0.0141  0.3379
   48TAL   C23711613   1.764   8.074   2.715 -0.4007 -0.2649  0.0573
   48TAL   C23811614   1.783   7.923   2.734  0.2421 -0.0337 -0.3132
   48TAL   C23911615   1.930   7.879   2.763  0.1222 -0.1700  0.4877
   48TAL   C24011616   1.940   7.731   2.790  0.1523  0.2750  0.0041
    1HTM     C111617   5.646   3.901   1.475  0.1705 -0.3362 -0.0605
    1HTM     C211618   5.641   3.831   1.592  0.1860 -0.1489  0.0526
    1HTM     C311619   5.771   3.806   1.650  0.1769  0.1906  0.2242
    1HTM     C411620   5.874   3.856   1.577  0.1545  0.2622  0.2418
    1HTM     S111621   5.816   3.941   1.428  0.1430 -0.0963  0.0415
    2TAL     C511622   5.790   3.711   1.766  0.7054 -0.3269 -0.1927
    2TAL     C611623   5.664   3.703   1.857 -0.0056  0.1042 -0.0806
    2TAL     C711624   5.673   3.632   1.993 -0.1254  0.0849 -0.3726
    2TAL     C811625   5.540   3.628   2.067  0.5659 -0.3288  0.1916
    2TAL     C911626   5.529   3.548   2.197 -0.1050  0.9270  0.4908
    2TAL    C1011627   5.383   3.530   2.240 -0.2356 -0.2942  0.3998
    3HTM    C1111628   6.014   3.861   1.607  0.0751  0.1834  0.0759
    3HTM    C1211629   6.112   3.766   1.621 -0.0477  0.1996  1.0962
    3HTM    C1311630   6.244   3.821   1.635 -0.0937  0.1982  1.5602
    3HTM    C1411631   6.247   3.958   1.631 -0.0062  0.1812  0.8935
    3HTM     S211632   6.083   4.028   1.610  0.1426  0.1655 -0.3817
    4TAL    C1511633   6.369   3.730   1.631  0.2707 -0.1667  0.3158
    4TAL    C1611634   6.347   3.575   1.657 -0.3867 -0.1287 -0.4647
    4TAL    C1711635   6.470   3.492   1.658 -0.1319  0.3120  0.3480
    4TAL    C1811636   6.445   3.344   1.682 -0.9783 -0.1916 -0.2021
    4TAL    C1911637   6.574   3.258   1.668 -0.7498 -0.1135  0.5083
    4TAL    C2011638   6.674   3.254   1.782 -0.4477 -0.3686 -0.0081
    5HTM    C2111639   6.354   4.055   1.649  0.2160 -0.1490 -0.2122
    5HTM    C2211640   6.354   4.185   1.606  0.1459 -0.0806 -0.0064
    5HTM    C2311641   6.479   4.253   1.628  0.0477  0.0095  0.2745
    5HTM    C2411642   6.574   4.176   1.687  0.0423  0.0093  0.2827
    5HTM     S311643   6.513   4.010   1.721  0.1624 -0.1050 -0.0664
    6TAL    C2511644   6.499   4.394   1.585  0.1662 -0.3531 -0.4795
    6TAL    C2611645   6.381   4.490   1.589 -0.2137  0.8578 -0.0967
    6TAL    C2711646   6.413   4.639   1.568 -0.3936 -0.0562 -0.7277
    6TAL    C2811647   6.515   4.679   1.464 -0.2525 -0.3971  0.0643
    6TAL    C2911648   6.520   4.825   1.418  0.1835  0.5669 -0.4449
    6TAL    C3011649   6.390   4.879   1.353  0.8544  0.7748 -0.9773
    7HTM    C3111650   6.711   4.210   1.729 -0.1271  0.2531  0.1272
    7HTM    C3211651   6.763   4.333   1.759  0.0539  0.2434 -0.1421
    7HTM    C3311652   6.899   4.328   1.806  0.0679  0.1523 -0.1911
    7HTM    C3411653   6.951   4.202   1.812 -0.1022  0.0924  0.0408
    7HTM     S411654   6.831   4.079   1.758 -0.2952  0.1470  0.3413
    8TAL    C3511655   6.970   4.459   1.837  0.1441 -0.9513  0.4641
    8TAL    C3611656   6.909   4.608   1.833  0.4405  0.5603  0.3449
    8TAL    C3711657   6.826   4.647   1.713  0.7878 -0.8526  0.4037
    8TAL    C3811658   6.760   4.784   1.725 -0.6046  0.4033 -0.1489
    8TAL    C3911659   6.829   4.905   1.666  0.4994 -0.5488 -0.0557
    8TAL    C4011660   6.734   5.021   1.702 -1.1802 -0.5683  0.0675
    9HTM    C4111661   7.082   4.146   1.843  0.3868 -0.1025 -0.1468
    9HTM    C4211662   7.191   4.207   1.897  0.7174 -0.1349 -0.7712
    9HTM    C4311663   7.305   4.121   1.910  0.6771 -0.2480 -1.1592
    9HTM    C4411664   7.283   3.994   1.866  0.3153 -0.3014 -0.8306
    9HTM     S511665   7.115   3.973   1.804 -0.0047 -0.2130  0.0008
   10TAL    C4511666   7.437   4.180   1.948  0.0586  0.7933  0.0406
   10TAL    C4611667   7.442   4.325   1.995 -0.3362 -0.2130  0.1807
   10TAL    C4711668   7.407   4.430   1.890 -0.5318  0.2667 -0.5691
   10TAL    C4811669   7.389   4.573   1.948 -0.9434 -0.4398 -0.0931
   10TAL    C4911670   7.277   4.592   2.047 -0.0173 -0.0802  0.0717
   10TAL    C5011671   7.274   4.725   2.117  0.0288 -0.2534 -0.2667
   11HTM    C5111672   7.375   3.876   1.874 -0.4530 -0.3519  0.3985
   11HTM    C5211673   7.336   3.748   1.846 -0.2584 -0.5058  0.8214
   11HTM    C5311674   7.432   3.648   1.886  0.2234 -0.1792  0.4862
   11HTM    C5411675   7.544   3.700   1.944  0.3962  0.2241 -0.1923
   11HTM     S611676   7.537   3.880   1.953 -0.0400  0.2220 -0.4627
   12TAL    C5511677   7.391   3.505   1.848  0.2018 -0.5030  0.2997
   12TAL    C5611678   7.491   3.389   1.826 -0.8959 -0.0288  0.0541
   12TAL    C5711679   7.436   3.269   1.903  0.2934 -0.5372 -0.6487
   12TAL    C5811680   7.533   3.158   1.933 -0.2385  0.8819 -0.4920
   12TAL    C5911681   7.489   3.049   2.023  0.3161 -0.0930 -0.2321
   12TAL    C6011682   7.461   3.092   2.170 -0.5030 -0.3960 -0.5525
   13HTM    C6111683   7.653   3.629   2.004 -0.2572  0.1022  0.2198
   13HTM    C6211684   7.785   3.632   1.970 -0.2177  0.6323  0.4224
   13HTM    C6311685   7.865   3.534   2.039  0.0339  0.8060  0.3802
   13HTM    C6411686   7.794   3.455   2.125  0.1857  0.4083  0.1451
   13HTM     S711687   7.619   3.500   2.126  0.0220 -0.2210 -0.0426
   14TAL    C6511688   8.016   3.514   2.025 -0.4547  1.3359 -0.5105
   14TAL    C6611689   8.101   3.642   2.053 -0.3285 -0.5404 -0.3059
   14TAL    C6711690   8.080   3.767   1.960  0.0327 -0.1307 -0.0702
   14TAL    C6811691   8.200   3.861   1.974  0.4235 -0.6725 -0.1202
   14TAL    C6911692   8.175   3.997   1.914 -0.6199 -0.2299 -0.0825
   14TAL    C7011693   8.305   4.077   1.911 -0.3843  0.1364 -0.0956
   15HTM    C7111694   7.826   3.341   2.208  0.0537  0.1311  0.2688
   15HTM    C7211695   7.862   3.215   2.170  0.5419  0.2311  0.3897
   15HTM    C7311696   7.821   3.112   2.262  0.5603  0.1211  0.2766
   15HTM    C7411697   7.754   3.160   2.371  0.0858 -0.0629  0.0692
   15HTM     S811698   7.737   3.340   2.365 -0.4248 -0.1119  0.0005
   16TAL    C7511699   7.850   2.963   2.235  0.0471  0.3408 -0.2297
   16TAL    C7611700   7.980   2.927   2.154 -0.0460  0.0012 -0.7656
   16TAL    C7711701   7.996   2.771   2.145 -1.1429 -0.0893 -0.2732
   16TAL    C7811702   8.145   2.745   2.118  0.3593 -0.4275 -0.1585
   16TAL    C7911703   8.179   2.599   2.122 -0.0592 -0.2876 -0.0366
   16TAL    C8011704   8.316   2.556   2.082  0.1035 -0.4204  0.0890
   17HTM    C8111705   7.681   3.096   2.475  0.2949  0.2882  0.4550
   17HTM    C8211706   7.713   2.981   2.540  0.8428  0.7606  1.0362
   17HTM    C8311707   7.622   2.946   2.646  0.8788  0.7422  1.0611
   17HTM    C8411708   7.520   3.035   2.662  0.3582  0.2558  0.4989
   17HTM     S911709   7.532   3.171   2.543 -0.2223 -0.2207 -0.1102
   18TAL    C8511710   7.635   2.827   2.742 -0.1252 -0.7408 -0.4892
   18TAL    C8611711   7.780   2.775   2.754 -0.6859  0.4616 -0.2559
   18TAL    C8711712   7.787   2.658   2.850  0.1638 -0.0356  0.3780
   18TAL    C8811713   7.915   2.582   2.850  0.0957  0.7495  0.5688
   18TAL    C8911714   8.039   2.656   2.905 -0.0217  0.3712 -0.7815
   18TAL    C9011715   8.167   2.587   2.863 -1.0010  0.5005 -0.3820
   19HTM    C9111716   7.411   3.047   2.754 -0.2289 -0.0773  0.1069
   19HTM    C9211717   7.331   2.948   2.802 -0.0696  0.0300  0.5918
   19HTM    C9311718   7.217   2.996   2.875  0.1340  0.1919  0.8081
   19HTM    C9411719   7.209   3.132   2.881  0.1305  0.2078  0.4880
   19HTM    S1011720   7.347   3.210   2.796 -0.1330  0.0184 -0.1160
   20TAL    C9511721   7.123   2.887   2.934 -0.4752  0.1509 -0.1762
   20TAL    C9611722   6.974   2.897   2.947  0.4939  0.6090  0.4908
   20TAL    C9711723   6.894   2.935   2.819  0.1368  0.1932  0.3004
   20TAL    C9811724   6.741   2.940   2.838 -0.0213  0.0606  0.5207
   20TAL    C9911725   6.673   3.025   2.943 -0.5440  0.7170 -0.0659
   20TAL   C10011726   6.531   2.973   2.968  0.6675 -0.3145 -0.7063
   21HTM   C10111727   7.108   3.220   2.940  0.9708  0.4001 -0.1519
   21HTM   C10211728   7.044   3.214   3.061  1.6160  0.1258  0.1779
   21HTM   C10311729   6.958   3.326   3.087  1.0276 -0.3908  0.4885
   21HTM   C10411730   6.956   3.418   2.986 -0.0655 -0.5102  0.3957
   21HTM    S1111731   7.063   3.369   2.849 -0.4398  0.0247 -0.0952
   22TAL   C10511732   6.868   3.341   3.211  0.0633  0.0845  0.3245
   22TAL   C10611733   6.868   3.224   3.314 -0.3002  0.0874  0.2560
   22TAL   C10711734   6.824   3.084   3.270 -0.7757  0.0296 -0.6236
   22TAL   C10811735   6.793   2.994   3.394  0.1475 -0.7799 -0.1627
   22TAL   C10911736   6.777   2.842   3.369 -0.2842  0.6468 -0.0199
   22TAL   C11011737   6.901   2.770   3.313 -0.3098 -0.0341  0.4962
   23HTM   C11111738   6.905   3.552   2.980  0.0669  0.0300  0.2481
   23HTM   C11211739   6.973   3.663   2.940 -0.0069  0.0936  0.3010
   23HTM   C11311740   6.902   3.786   2.965 -0.1769  0.0217  0.1742
   23HTM   C11411741   6.780   3.768   3.024 -0.2329 -0.0968  0.0247
   23HTM    S1211742   6.746   3.594   3.053 -0.0741 -0.1271  0.0325
   24TAL   C11511743   6.957   3.927   2.936 -0.3369 -0.2281 -0.3019
   24TAL   C11611744   7.102   3.932   2.877  0.1817 -0.5376  0.0385
   24TAL   C11711745   7.163   4.070   2.853  0.0573 -0.1351  0.0996
   24TAL   C11811746   7.313   4.086   2.844  0.1336  0.3059  0.2062
   24TAL   C11911747   7.346   4.231   2.840 -0.3301  0.0670  0.2458
   24TAL   C12011748   7.478   4.256   2.778  0.4974 -0.0104 -0.5747
   25HTM   C12111749   6.674   3.869   3.047 -0.3863  0.0923 -0.2177
   25HTM   C12211750   6.542   3.853   3.014 -0.4725  0.1296  0.1078
   25HTM   C12311751   6.458   3.961   3.058 -0.3333  0.1541  0.3171
   25HTM   C12411752   6.525   4.060   3.124 -0.1407  0.1358  0.1512
   25HTM    S1311753   6.701   4.024   3.136 -0.1199  0.0854 -0.2857
   26TAL   C12511754   6.315   3.939   3.016 -0.2489 -0.9435 -0.3074
   26TAL   C12611755   6.255   4.026   2.903 -0.3297 -0.7082 -0.2898
   26TAL   C12711756   6.108   4.044   2.900 -0.0120  0.9824  0.6718
   26TAL   C12811757   6.035   4.114   3.018  0.2893 -0.6878  0.7780
   26TAL   C12911758   5.883   4.138   3.016  0.1715  0.1865  0.3156
   26TAL   C13011759   5.800   4.024   2.970  0.4638 -0.4413 -0.4373
   27HTM   C13111760   6.472   4.183   3.190 -0.0412 -0.9496  1.0666
   27HTM   C13211761   6.541   4.294   3.226  0.4249 -1.3800  1.5210
   27HTM   C13311762   6.459   4.398   3.283  0.7050 -0.9031  1.0704
   27HTM   C13411763   6.327   4.365   3.290  0.4522 -0.1089  0.2724
   27HTM    S1411764   6.296   4.199   3.225 -0.1636  0.0997  0.0263
   28TAL   C13511765   6.518   4.534   3.327 -0.5864 -0.1546 -0.1602
   28TAL   C13611766   6.672   4.558   3.333 -0.2066  0.3742  0.3335
   28TAL   C13711767   6.756   4.483   3.437 -0.1221 -0.3072  0.4128
   28TAL   C13811768   6.911   4.504   3.445 -0.6654 -1.0394  0.1433
   28TAL   C13911769   6.983   4.638   3.420 -0.9994 -0.5277  0.3488
   28TAL   C14011770   7.131   4.607   3.446  0.8080  0.1289 -0.8519
   29HTM   C14111771   6.210   4.437   3.332 -0.1215 -0.3185  0.1865
   29HTM   C14211772   6.087   4.379   3.341 -0.3281  0.1206  0.2490
   29HTM   C14311773   5.989   4.460   3.407 -0.0174  0.4966  0.2508
   29HTM   C14411774   6.037   4.581   3.449  0.4261  0.3438  0.1900
   29HTM    S1511775   6.211   4.601   3.407  0.4862 -0.2912  0.1249
   30TAL   C14511776   5.852   4.399   3.410  0.2640  0.6035  0.4432
   30TAL   C14611777   5.784   4.392   3.271  0.7606 -0.0032  0.2066
   30TAL   C14711778   5.645   4.340   3.281  0.5940 -0.5090 -0.2222
   30TAL   C14811779   5.615   4.190   3.294 -0.2317 -0.0299  0.0791
   30TAL   C14911780   5.470   4.157   3.319  0.0175  0.2138  0.1900
   30TAL   C15011781   5.461   4.011   3.357  0.3720  0.2084  0.6035
   31HTM   C15111782   5.963   4.689   3.498  0.1224  0.0335  0.0683
   31HTM   C15211783   6.017   4.814   3.504  0.1197  0.0367  0.0350
   31HTM   C15311784   5.926   4.913   3.556  0.1001  0.0584 -0.0396
   31HTM   C15411785   5.804   4.863   3.590  0.0882  0.0720 -0.0629
   31HTM    S1611786   5.793   4.686   3.558  0.1005  0.0583  0.0078
   32TAL   C15511787   5.966   5.062   3.560 -0.1966  0.5206  0.4226
   32TAL   C15611788   6.107   5.118   3.581 -0.4275  0.5442 -0.4742
   32TAL   C15711789   6.220   5.076   3.488 -0.6461  0.5604  0.0687
   32TAL   C15811790   6.355   5.128   3.537 -0.7390  0.0210 -0.9043
   32TAL   C15911791   6.389   5.278   3.528  0.1242  0.0851  0.3565
   32TAL   C16011792   6.356   5.353   3.398  0.9423 -0.1385 -0.3019
   33HTM   C16111793   5.682   4.932   3.631 -0.0935  0.0981 -0.1442
   33HTM   C16211794   5.562   4.870   3.649 -0.2649  0.3603 -0.3810
   33HTM   C16311795   5.461   4.955   3.708 -0.1333  0.5147 -0.3775
   33HTM   C16411796   5.505   5.081   3.736  0.1383  0.3705 -0.1381
   33HTM    S1711797   5.678   5.103   3.689  0.2497  0.0253  0.1035
   34TAL   C16511798   5.317   4.901   3.726 -0.5062 -0.2265 -0.5909
   34TAL   C16611799   5.275   4.776   3.652  0.1770  0.5514  0.4449
   34TAL   C16711800   5.148   4.721   3.719  0.2850 -0.2367 -0.2770
   34TAL   C16811801   5.084   4.609   3.634  0.0255  0.6005  0.2578
   34TAL   C16911802   4.965   4.549   3.707 -0.1191  0.4249  0.5201
   34TAL   C17011803   4.896   4.430   3.645 -0.5185 -0.5344 -0.3763
   35HTM   C17111804   5.433   5.202   3.777 -0.1036  0.0672 -0.2678
   35HTM   C17211805   5.301   5.217   3.805 -0.1097  0.1302 -0.3331
   35HTM   C17311806   5.266   5.348   3.855 -0.0496  0.1016 -0.2179
   35HTM   C17411807   5.373   5.432   3.865  0.0028  0.0172 -0.0647
   35HTM    S1811808   5.526   5.353   3.812 -0.0200 -0.0334 -0.0538
   36TAL   C17511809   5.127   5.375   3.910  0.0140  0.3448  0.0510
   36TAL   C17611810   5.056   5.270   4.004  0.4052  0.4276 -0.1311
   36TAL   C17711811   4.912   5.295   4.038 -0.0385 -0.3701  0.1626
   36TAL   C17811812   4.846   5.246   4.173 -0.2060  0.0767  0.2386
   36TAL   C17911813   4.700   5.290   4.210 -0.2094 -0.0211 -0.0359
   36TAL   C18011814   4.603   5.249   4.103  0.5718 -0.4140  0.1779
   37HTM   C18111815   5.371   5.565   3.911  0.3835 -0.6077  0.2736
   37HTM   C18211816   5.279   5.661   3.881  0.3231 -0.9286 -0.6049
   37HTM   C18311817   5.305   5.788   3.943 -0.1047 -0.5190 -1.2473
   37HTM   C18411818   5.418   5.789   4.020 -0.3701  0.1144 -0.8586
   37HTM    S1911819   5.499   5.628   4.020 -0.0983  0.2435  0.3581
   38TAL   C18511820   5.219   5.910   3.913 -0.6002  0.3702 -0.4931
   38TAL   C18611821   5.072   5.892   3.867 -0.0162 -0.1278  0.3185
   38TAL   C18711822   4.989   6.017   3.829  0.3823 -0.0558  0.0953
   38TAL   C18811823   4.858   5.987   3.763 -0.5575 -0.4072  0.2522
   38TAL   C18911824   4.781   6.106   3.731  0.4009  0.0061  0.5846
   38TAL   C19011825   4.636   6.073   3.704 -0.1218 -0.2558 -0.0058
   39HTM   C19111826   5.462   5.888   4.114 -0.1062 -0.2842 -0.0882
   39HTM   C19211827   5.589   5.921   4.149 -0.0596 -0.6590  0.0947
   39HTM   C19311828   5.599   6.037   4.233  0.1521 -0.7675  0.2213
   39HTM   C19411829   5.478   6.094   4.263  0.2667 -0.4748  0.1351
   39HTM    S2011830   5.342   6.003   4.186  0.1151 -0.0369 -0.1152
   40TAL   C19511831   5.733   6.090   4.285  1.0656 -0.4121  0.3801
   40TAL   C19611832   5.849   5.997   4.300  0.0090  0.0342 -0.1259
   40TAL   C19711833   5.984   6.063   4.338 -0.5550  0.8297  0.3452
   40TAL   C19811834   6.088   5.961   4.389 -0.0090 -0.3141  0.1850
   40TAL   C19911835   6.219   6.034   4.418  0.5397  0.0363 -0.3553
   40TAL   C20011836   6.328   5.937   4.469  0.2732  0.3244  0.3344
   41HTM   C20111837   5.434   6.214   4.329  0.9358 -0.1188  0.3806
   41HTM   C20211838   5.328   6.211   4.415  0.8097 -0.3211  0.2234
   41HTM   C20311839   5.285   6.342   4.457  0.1681 -0.3841 -0.2379
   41HTM   C20411840   5.357   6.444   4.402 -0.1951 -0.2293 -0.4321
   41HTM    S2111841   5.486   6.382   4.293  0.2481  0.0092 -0.0446
   42TAL   C20511842   5.169   6.364   4.553 -0.0675  0.1320 -0.4258
   42TAL   C20611843   5.022   6.350   4.506  0.5728 -0.4366 -0.6331
   42TAL   C20711844   4.930   6.427   4.602 -0.3293  0.5084 -0.5504
   42TAL   C20811845   4.938   6.583   4.608  0.0308  0.4669  0.2140
   42TAL   C20911846   4.838   6.647   4.696 -0.7524  0.8810 -0.9460
   42TAL   C21011847   4.865   6.796   4.710  0.3114 -0.3531  0.0311
   43HTM   C21111848   5.334   6.586   4.407  0.1196 -0.1359  0.1765
   43HTM   C21211849   5.400   6.686   4.472  0.1447 -0.1848  0.2251
   43HTM   C21311850   5.330   6.811   4.474  0.3598 -0.0596 -0.0658
   43HTM   C21411851   5.210   6.808   4.410  0.4984  0.0844 -0.3363
   43HTM    S2211852   5.176   6.644   4.342  0.3670  0.0736 -0.2439
   44TAL   C21511853   5.379   6.938   4.542  0.0693  0.0820 -0.4067
   44TAL   C21611854   5.525   6.944   4.590 -0.4371 -0.1386 -0.0333
   44TAL   C21711855   5.561   7.073   4.665  0.1470 -0.0291 -0.3785
   44TAL   C21811856   5.569   7.213   4.594  0.0203  0.1968 -0.2627
   44TAL   C21911857   5.681   7.300   4.662 -1.2827  0.3439  0.3758
   44TAL   C22011858   5.718   7.409   4.567 -0.3198  0.3576  0.0945
   45HTM   C22111859   5.095   6.902   4.414  0.3596 -0.1051 -0.0804
   45HTM   C22211860   4.973   6.865   4.365  0.3471 -0.1538 -0.0126
   45HTM   C22311861   4.878   6.974   4.360  0.2701 -0.2148  0.1330
   45HTM   C22411862   4.927   7.092   4.405  0.2236 -0.2118  0.1766
   45HTM    S2311863   5.099   7.077   4.458  0.2743 -0.1319  0.0359
   46TAL   C22511864   4.736   6.964   4.296  0.1114  0.2914  0.0365
   46TAL   C22611865   4.713   6.884   4.170 -0.8490 -0.1038  0.5642
   46TAL   C22711866   4.572   6.885   4.124 -0.6219 -0.7917  0.6312
   46TAL   C22811867   4.548   6.782   4.016 -0.1717  0.6875 -0.0051
   46TAL   C22911868   4.418   6.800   3.943  0.1964 -0.0468  0.8709
   46TAL   C23011869   4.290   6.786   4.015  0.2691  0.8093 -0.4015
   47HTM   C23111870   4.864   7.223   4.423  0.0577 -0.2399  0.3519
   47HTM   C23211871   4.919   7.346   4.400  0.1678 -0.2851  0.3729
   47HTM   C23311872   4.823   7.454   4.405  0.2403 -0.2155  0.2506
   47HTM   C23411873   4.696   7.413   4.431  0.1852 -0.1172  0.1366
   47HTM    S2411874   4.687   7.234   4.452  0.0368 -0.1049  0.1749
   48TAL   C23511875   4.848   7.597   4.350  0.0205  0.6999 -0.2481
   48TAL   C23611876   4.728   7.693   4.332  0.3674  0.1356 -0.0605
   48TAL   C23711877   4.772   7.835   4.278 -0.4861  0.6602  0.1201
   48TAL   C23811878   4.658   7.926   4.244 -0.2587  0.1814  0.0101
   48TAL   C23911879   4.693   8.073   4.223 -0.2178 -0.2335  0.6282
   48TAL   C24011880   4.767   8.160   4.329 -0.6826 -0.3388 -0.0525
    1HTM     C111881   7.218   7.894   4.552 -0.2410  0.0055 -0.1924
    1HTM     C211882   7.151   7.975   4.465 -0.1202  0.1743 -0.1287
    1HTM     C311883   7.229   8.087   4.418 -0.0172  0.2031  0.1094
    1HTM     C411884   7.355   8.091   4.469 -0.0595  0.0569  0.2271
    1HTM     S111885   7.386   7.953   4.581 -0.2344 -0.1310  0.0450
    2TAL     C511886   7.165   8.180   4.315  0.5579 -0.1487 -0.0102
    2TAL     C611887   7.025   8.226   4.343 -0.1674  0.2371  0.0341
    2TAL     C711888   6.973   8.308   4.232  0.3239 -0.3209 -0.2081
    2TAL     C811889   6.827   8.346   4.257 -0.0540 -0.4697  0.0681
    2TAL     C911890   6.773   8.450   4.163  0.5337 -0.2241  0.4090
    2TAL    C1011891   6.630   8.483   4.198 -0.3482 -0.1997  0.5311
    3HTM    C1111892   7.472   8.179   4.456  0.3753 -0.1148  0.0152
    3HTM    C1211893   7.573   8.195   4.546  0.6578  0.0453 -0.3302
    3HTM    C1311894   7.660   8.307   4.517  0.3030  0.2632 -0.5546
    3HTM    C1411895   7.624   8.375   4.404 -0.2501  0.2685 -0.3803
    3HTM     S211896   7.478   8.304   4.326 -0.3664 -0.0026  0.0840
    4TAL    C1511897   7.773   8.333   4.612 -0.0251 -0.3782 -0.2195
    4TAL    C1611898   7.870   8.214   4.643 -0.5488  0.2984 -0.4615
    4TAL    C1711899   7.981   8.236   4.744 -0.1260  0.1240 -0.3949
    4TAL    C1811900   8.105   8.313   4.709  0.3313  0.1141 -0.4119
    4TAL    C1911901   8.071   8.458   4.690  0.3010 -0.1678  0.1619
    4TAL    C2011902   8.179   8.539   4.633  0.5344 -0.1779  0.2748
    5HTM    C2111903   7.687   8.492   4.352  0.0736 -0.3545 -0.0700
    5HTM    C2211904   7.622   8.592   4.285 -0.1240 -0.6390 -0.3011
    5HTM    C2311905   7.705   8.705   4.255 -0.4144 -0.4387 -0.3471
    5HTM    C2411906   7.834   8.693   4.299 -0.4378 -0.0004 -0.1512
    5HTM     S311907   7.860   8.535   4.383 -0.0929  0.1933  0.1088
    6TAL    C2511908   7.657   8.826   4.176 -0.4246  0.1024  0.3693
    6TAL    C2611909   7.549   8.803   4.069  0.0757 -0.0687  0.1216
    6TAL    C2711910   7.569   8.906   3.951  0.2645  0.4536  0.2441
    6TAL    C2811911   7.431   8.927   3.879 -0.0210 -0.1218 -0.2150
    6TAL    C2911912   7.431   9.038   3.775 -0.4286 -0.5171 -0.3995
    6TAL    C3011913   7.325   9.011   3.666  0.2120 -0.9842  0.5219
    7HTM    C3111914   7.955   8.774   4.284 -0.3462  0.0726 -0.3517
    7HTM    C3211915   8.081   8.738   4.322 -0.4787 -0.3748 -0.3271
    7HTM    C3311916   8.177   8.844   4.311 -0.1287 -0.6738 -0.1700
    7HTM    C3411917   8.124   8.961   4.265  0.2723 -0.4544 -0.0750
    7HTM     S411918   7.948   8.946   4.232  0.2373  0.1510 -0.1773
    8TAL    C3511919   8.322   8.819   4.332 -0.1564  0.1823  0.1384
    8TAL    C3611920   8.371   8.794   4.471 -0.0690 -0.2889  0.3080
    8TAL    C3711921   8.513   8.818   4.492 -0.1963  0.0246  0.4347
    8TAL    C3811922   8.543   8.791   4.636  0.2255  0.1682  0.3089
    8TAL    C3911923   8.681   8.818   4.683 -0.0658  0.1779 -0.4856
    8TAL    C4011924   8.808   8.747   4.623 -0.1623  0.1554  0.7143
    9HTM    C4111925   8.175   9.097   4.236  0.3042  0.0662 -0.3840
    9HTM    C4211926   8.174   9.173   4.123  0.5927  0.1818 -0.3090
    9HTM    C4311927   8.241   9.300   4.138  0.3757  0.2542  0.0520
    9HTM    C4411928   8.292   9.321   4.262 -0.0786  0.1939  0.2525
    9HTM     S511929   8.261   9.180   4.371 -0.2693  0.0398 -0.0008
   10TAL    C4511930   8.264   9.392   4.018 -0.3216  0.2140  0.0562
   10TAL    C4611931   8.160   9.371   3.910 -0.1403  0.2921  0.2193
   10TAL    C4711932   8.182   9.475   3.796 -0.2264 -0.1543 -0.2618
   10TAL    C4811933   8.090   9.472   3.678  0.0315  0.0265 -0.0983
   10TAL    C4911934   8.091   9.588   3.583  0.0466  0.0566 -0.4650
   10TAL    C5011935   8.020   9.580   3.447 -0.7497  0.3243 -0.2545
   11HTM    C5111936   8.357   9.435   4.324 -0.0344 -0.1806  0.1079
   11HTM    C5211937   8.478   9.489   4.293  0.2780 -0.6071  0.5536
   11HTM    C5311938   8.512   9.604   4.373  0.2418 -0.5352  0.4666
   11HTM    C5411939   8.418   9.637   4.465 -0.0991 -0.0540 -0.0452
   11HTM     S611940   8.277   9.524   4.459 -0.4029  0.3488 -0.4606
   12TAL    C5511941   8.649   9.678   4.357 -0.3502 -1.0816 -0.2374
   12TAL    C5611942   8.772   9.599   4.409  0.0453 -0.1022 -0.2053
   12TAL    C5711943   8.776   9.553   4.557  0.0354  0.4963  0.4786
   12TAL    C5811944   8.847   9.651   4.645  0.4981  0.0237  0.0040
   12TAL    C5911945   8.875   9.603   4.788 -0.4645 -0.1343  0.5286
   12TAL    C6011946   8.761   9.542   4.873  0.2835 -0.5470  0.1831
   13HTM    C6111947   8.418   9.727   4.576 -0.2205 -0.5349  0.0154
   13HTM    C6211948   8.526   9.793   4.626  0.0014 -0.8299 -0.0708
   13HTM    C6311949   8.496   9.876   4.740  0.2589 -0.5012 -0.2398
   13HTM    C6411950   8.364   9.873   4.776  0.2341  0.0443 -0.2822
   13HTM     S711951   8.268   9.765   4.668 -0.1199  0.1864 -0.1106
   14TAL    C6511952   8.603   9.955   4.806 -0.1349  0.6515  0.1017
   14TAL    C6611953   8.677   9.892   4.931  0.5503 -0.2295  0.8838
   14TAL    C6711954   8.611   9.903   5.061 -0.5345  0.2474 -0.6738
   14TAL    C6811955   8.660  10.021   5.148 -0.0888 -0.2255  0.2703
   14TAL    C6911956   8.563  10.019   5.269 -0.2978  0.4303  0.9677
   14TAL    C7011957   8.598  10.118   5.374 -0.1865  0.1945 -0.3277
   15HTM    C7111958   8.289   9.938   4.880 -0.0242 -0.3753  0.0080
   15HTM    C7211959   8.173   9.894   4.936  0.0663 -0.6823 -0.0467
   15HTM    C7311960   8.125   9.978   5.043 -0.1478 -0.8697  0.0038
   15HTM    C7411961   8.204  10.086   5.068 -0.4022 -0.7054  0.0970
   15HTM     S811962   8.347  10.091   4.958 -0.3896 -0.2984  0.1292
   16TAL    C7511963   7.996   9.943   5.123  0.0304 -0.6097 -0.5021
   16TAL    C7611964   8.026   9.836   5.232 -0.0482  0.4785 -0.8568
   16TAL    C7711965   8.115   9.875   5.354  0.0858 -0.0954  0.1613
   16TAL    C7811966   8.042   9.966   5.454  0.2531  0.1017  0.3558
   16TAL    C7911967   8.145  10.048   5.533 -0.0051 -0.1763  0.2461
   16TAL    C8011968   8.259   9.992   5.617  0.4235 -0.2165  0.3557
   17HTM    C8111969   8.191  10.195   5.164  0.0365  0.1194  0.1464
   17HTM    C8211970   8.282  10.251   5.248  0.0381  0.1770  0.1042
   17HTM    C8311971   8.230  10.361   5.326  0.0653  0.2918 -0.0379
   17HTM    C8411972   8.099  10.387   5.302  0.0841  0.3217 -0.1042
   17HTM     S911973   8.030  10.275   5.178  0.0685  0.2063  0.0086
   18TAL    C8511974   8.314  10.425   5.436 -0.7792  0.9649 -0.6949
   18TAL    C8611975   8.407  10.533   5.387  0.2851 -0.1001 -0.0434
   18TAL    C8711976   8.484  10.616   5.492 -0.1005  0.4037  0.7512
   18TAL    C8811977   8.417  10.703   5.592 -0.0023 -0.7124  0.2889
   18TAL    C8911978   8.510  10.816   5.647  0.4561 -0.1951  0.1022
   18TAL    C9011979   8.433  10.943   5.700 -0.3276  0.2722  0.4926
   19HTM    C9111980   8.007  10.488   5.342  0.2088 -0.5886 -0.3465
   19HTM    C9211981   8.021  10.609   5.403  0.7000 -0.6633 -0.3030
   19HTM    C9311982   7.897  10.681   5.418  0.9835 -0.1808 -0.2415
   19HTM    C9411983   7.789  10.614   5.368  0.7076  0.2616 -0.2376
   19HTM    S1011984   7.836  10.455   5.297  0.0638  0.1021 -0.3128
   20TAL    C9511985   7.872  10.821   5.483  0.3571  0.5580 -0.5015
   20TAL    C9611986   7.979  10.871   5.582 -0.2452  0.2635  0.2311
   20TAL    C9711987   8.008  10.793   5.714  0.8713 -0.1245 -0.1885
   20TAL    C9811988   8.050  10.888   5.830 -0.3983  0.1986 -0.3088
   20TAL    C9911989   8.095  10.823   5.956  0.3437  0.3534  0.1174
   20TAL   C10011990   8.155  10.936   6.039 -0.2089  0.0852 -0.0228
   21HTM   C10111991   7.651  10.650   5.339  0.0319 -0.3003  0.0164
   21HTM   C10211992   7.553  10.557   5.320 -0.1183 -0.1635  0.1218
   21HTM   C10311993   7.433  10.610   5.262 -0.0277 -0.0376  0.0503
   21HTM   C10411994   7.439  10.744   5.236  0.1917 -0.0784 -0.1094
   21HTM    S1111995   7.599  10.813   5.284  0.3017 -0.2805 -0.1824
   22TAL   C10511996   7.307  10.532   5.234  0.5865  0.5769  0.0883
   22TAL   C10611997   7.287  10.453   5.101 -0.5263 -0.2695 -0.3110
   22TAL   C10711998   7.183  10.338   5.101  0.0373 -0.5415  0.4662
   22TAL   C10811999   7.117  10.285   4.969  0.2165 -0.8187 -0.1534
   22TAL   C10912000   7.042  10.384   4.887 -0.0898  0.0143 -0.3130
   22TAL   C11012001   7.022  10.331   4.747 -0.1309 -0.3966  0.6513
   23HTM   C11112002   7.344  10.837   5.185 -0.2777 -0.3910  0.3176
   23HTM   C11212003   7.321  10.963   5.231 -0.2697 -0.3989  0.3433
   23HTM   C11312004   7.215  11.032   5.161  0.0892 -0.1855  0.0067
   23HTM   C11412005   7.158  10.958   5.062  0.3549 -0.0147 -0.2753
   23HTM    S1212006   7.233  10.794   5.049  0.1708 -0.1110 -0.1370
   24TAL   C11512007   7.168  11.171   5.211  0.0515 -0.3736 -1.0123
   24TAL   C11612008   7.092  11.178   5.346 -0.4664 -0.5016  0.1665
   24TAL   C11712009   6.967  11.092   5.350 -0.1996 -0.1134 -0.1676
   24TAL   C11812010   6.830  11.159   5.352 -0.4873 -0.4935 -0.1759
   24TAL   C11912011   6.727  11.057   5.393  0.4766 -0.7540  0.1949
   24TAL   C12012012   6.596  11.126   5.438  0.0033 -0.0044 -0.1570
   25HTM   C12112013   7.039  10.977   4.979 -0.4698  0.0326  0.0224
   25HTM   C12212014   6.946  11.077   4.975 -0.2923  0.1744 -0.5491
   25HTM   C12312015   6.833  11.047   4.891 -0.0145  0.1825 -0.9277
   25HTM   C12412016   6.840  10.924   4.831  0.0195  0.0469 -0.6453
   25HTM    S1312017   6.991  10.836   4.877 -0.2984 -0.1027  0.1270
   26TAL   C12512018   6.711  11.142   4.874 -0.8795 -0.0343  0.0782
   26TAL   C12612019   6.697  11.269   4.958 -0.3108  0.1479 -0.3502
   26TAL   C12712020   6.578  11.351   4.917 -0.0117  0.8238  0.2056
   26TAL   C12812021   6.529  11.451   5.027 -0.4167 -0.3643 -0.5292
   26TAL   C12912022   6.498  11.403   5.166  0.1703  0.6318 -0.5335
   26TAL   C13012023   6.387  11.299   5.180  0.1128  0.3277 -0.0570
   27HTM   C13112024   6.749  10.859   4.739 -0.2808  0.0334 -0.2555
   27HTM   C13212025   6.800  10.792   4.632 -0.3858 -0.3648 -0.0608
   27HTM   C13312026   6.700  10.741   4.542 -0.4704 -0.5940  0.1638
   27HTM   C13412027   6.572  10.768   4.581 -0.4300 -0.3707  0.1402
   27HTM    S1412028   6.569  10.862   4.735 -0.2810  0.1505 -0.1702
   28TAL   C13512029   6.729  10.659   4.411 -0.2711  0.3668 -0.6372
   28TAL   C13612030   6.835  10.549   4.409 -0.0043  0.2646  0.4330
   28TAL   C13712031   6.984  10.587   4.426 -0.1328 -0.0362  0.2926
   28TAL   C13812032   7.068  10.475   4.383  0.2115  0.4933  0.0731
   28TAL   C13912033   7.215  10.506   4.403  0.6967  0.1861  0.2870
   28TAL   C14012034   7.321  10.407   4.367 -0.0514  0.1829  0.2120
   29HTM   C14112035   6.443  10.728   4.528 -0.0710 -0.3202 -0.3973
   29HTM   C14212036   6.340  10.667   4.592  0.2661 -1.2784 -0.7510
   29HTM   C14312037   6.223  10.648   4.510  0.3181 -1.3207 -0.8166
   29HTM   C14412038   6.237  10.696   4.383  0.0204 -0.3944 -0.5119
   29HTM    S1512039   6.400  10.768   4.357 -0.3511  0.6104 -0.1163
   30TAL   C14512040   6.093  10.591   4.564 -0.4138 -0.1669  0.5839
   30TAL   C14612041   6.041  10.652   4.694 -0.3167  0.5514 -0.0319
   30TAL   C14712042   6.000  10.799   4.688  0.0888 -0.4361 -0.3362
   30TAL   C14812043   5.955  10.864   4.821  0.2854 -0.3157  0.2250
   30TAL   C14912044   5.906  11.014   4.816 -0.4874  0.0883 -0.0381
   30TAL   C15012045   5.864  11.058   4.950  0.0814  0.2897  0.2484
   31HTM   C15112046   6.157  10.682   4.265  0.0947  0.2996  0.0952
   31HTM   C15212047   6.038  10.739   4.233  0.2525  0.5760 -0.0069
   31HTM   C15312048   5.998  10.718   4.096  0.2174  0.4830  0.0176
   31HTM   C15412049   6.087  10.644   4.024  0.0328  0.1359  0.1388
   31HTM    S1612050   6.230  10.597   4.123 -0.1119 -0.1025  0.2319
   32TAL   C15512051   5.880  10.781   4.030  0.3101 -0.4624 -0.0613
   32TAL   C15612052   5.854  10.931   4.043  1.0145  0.4721 -0.5686
   32TAL   C15712053   5.967  11.025   3.992 -0.1953  0.1064  0.4484
   32TAL   C15812054   5.928  11.170   3.993 -0.3425  0.0628  0.2660
   32TAL   C15912055   6.041  11.257   3.942  0.4120 -0.7182  0.2369
   32TAL   C16012056   5.999  11.401   3.947  0.0108  0.6785 -0.5439
   33HTM   C16112057   6.102  10.627   3.883  0.0204  0.4045 -0.1655
   33HTM   C16212058   6.104  10.507   3.818 -0.4065  0.4796 -0.3200
   33HTM   C16312059   6.168  10.513   3.689 -0.5856  0.4665 -0.4096
   33HTM   C16412060   6.214  10.637   3.656 -0.2956  0.3815 -0.3235
   33HTM    S1712061   6.181  10.757   3.786  0.2309  0.3109 -0.1207
   34TAL   C16512062   6.178  10.391   3.604 -0.3021  0.1967  0.3868
   34TAL   C16612063   6.274  10.279   3.670 -0.0350 -0.7763  0.5435
   34TAL   C16712064   6.423  10.299   3.688 -0.2193  0.6829 -0.4888
   34TAL   C16812065   6.527  10.274   3.575 -0.1761  0.5888 -0.2711
   34TAL   C16912066   6.500  10.149   3.491 -0.4458  0.1244 -0.1018
   34TAL   C17012067   6.613  10.130   3.384 -0.0636  0.0220 -0.4819
   35HTM   C17112068   6.295  10.686   3.551 -0.0536  0.0371 -0.0599
   35HTM   C17212069   6.363  10.616   3.456 -0.3011  0.1374 -0.3117
   35HTM   C17312070   6.464  10.694   3.388 -0.4809  0.2102 -0.4963
   35HTM   C17412071   6.472  10.822   3.431 -0.3705  0.1656 -0.3849
   35HTM    S1812072   6.353  10.856   3.562 -0.0282  0.0268 -0.0359
   36TAL   C17512073   6.531  10.639   3.266  0.2745  1.3521  0.5039
   36TAL   C17612074   6.661  10.564   3.292 -0.3691  0.4175  0.0372
   36TAL   C17712075   6.694  10.489   3.157  0.1573  0.6229 -0.7209
   36TAL   C17812076   6.824  10.405   3.168  0.5343 -0.6193  0.3892
   36TAL   C17912077   6.859  10.331   3.044  0.2046 -0.4927  0.2098
   36TAL   C18012078   6.980  10.245   3.050 -0.6585 -0.3443 -0.1106
   37HTM   C18112079   6.558  10.932   3.390 -0.3530 -0.2094 -0.5185
   37HTM   C18212080   6.535  11.064   3.418 -0.9694 -0.3111 -0.5313
   37HTM   C18312081   6.650  11.148   3.399 -1.2014  0.1367  0.0201
   37HTM   C18412082   6.761  11.080   3.357 -0.7621  0.5800  0.4535
   37HTM    S1912083   6.728  10.904   3.338 -0.0158  0.4654  0.1966
   38TAL   C18512084   6.651  11.299   3.415  0.7299 -0.5086  0.1619
   38TAL   C18612085   6.521  11.370   3.437  0.7844 -0.2371  0.6185
   38TAL   C18712086   6.519  11.523   3.456 -0.4064  0.3493 -0.1122
   38TAL   C18812087   6.388  11.587   3.487  0.3197 -0.6071 -0.7284
   38TAL   C18912088   6.392  11.738   3.468 -0.5309  0.7900 -0.0054
   38TAL   C19012089   6.278  11.825   3.516  0.3222 -0.5512 -0.2367
   39HTM   C19112090   6.899  11.119   3.326  0.2075  0.0172  0.3755
   39HTM   C19212091   6.992  11.023   3.300  0.2308  0.1171  0.0880
   39HTM   C19312092   7.121  11.076   3.264  0.0751  0.2551 -0.2704
   39HTM   C19412093   7.126  11.212   3.263 -0.0670  0.2605 -0.2560
   39HTM    S2012094   6.967  11.285   3.307 -0.0146  0.0904  0.2145
   40TAL   C19512095   7.221  10.982   3.212 -0.8343  0.2600  0.2768
   40TAL   C19612096   7.185  10.838   3.165 -0.2733 -0.3565 -0.8785
   40TAL   C19712097   7.089  10.814   3.045 -0.6563  0.6213 -0.2761
   40TAL   C19812098   7.072  10.673   2.994  0.0739  0.1504  0.2193
   40TAL   C19912099   6.976  10.665   2.877 -0.3478 -0.2210 -0.1243
   40TAL   C20012100   6.827  10.697   2.887  0.2374  0.3321 -0.2586
   41HTM   C20112101   7.230  11.311   3.230  0.0318  0.3357 -0.1795
   41HTM   C20212102   7.362  11.290   3.205  0.0970  0.3672  0.1456
   41HTM   C20312103   7.435  11.411   3.177  0.1411  0.3853  0.3316
   41HTM   C20412104   7.358  11.524   3.179  0.1089  0.3676  0.1482
   41HTM    S2112105   7.187  11.486   3.218  0.0197  0.3265 -0.2769
   42TAL   C20512106   7.586  11.407   3.146  0.3776  0.0855  0.6031
   42TAL   C20612107   7.625  11.298   3.044 -0.2381 -0.2083 -0.3550
   42TAL   C20712108   7.766  11.313   2.987 -0.0031 -0.1526 -0.0108
   42TAL   C20812109   7.785  11.208   2.882  0.3333  0.6653  0.3762
   42TAL   C20912110   7.921  11.187   2.834 -0.4929 -0.3412  0.6993
   42TAL   C21012111   7.930  11.067   2.741 -0.5951 -0.2653  0.2020
   43HTM   C21112112   7.385  11.663   3.157  0.0998 -0.1211 -0.2010
   43HTM   C21212113   7.320  11.766   3.220 -0.0522 -0.2576 -0.1321
   43HTM   C21312114   7.389  11.892   3.210 -0.1929 -0.1678  0.0291
   43HTM   C21412115   7.505  11.886   3.139 -0.1483  0.0375  0.0833
   43HTM    S2212116   7.538  11.719   3.080  0.0765  0.1336 -0.0663
   44TAL   C21512117   7.325  12.023   3.262 -0.1172 -0.0992  0.0286
   44TAL   C21612118   7.262  12.007   3.400 -0.3450 -0.7777 -0.8005
   44TAL   C21712119   7.206  12.142   3.460  0.0736 -0.1200  0.9426
   44TAL   C21812120   7.126  12.132   3.591 -0.5754 -0.0597  0.2264
   44TAL   C21912121   7.218  12.112   3.709  0.4882 -0.0127 -0.0636
   44TAL   C22012122   7.140  12.108   3.839  0.1167  0.4800 -0.2073
   45HTM   C22112123   7.616  11.979   3.118 -0.0473 -0.0704 -0.1646
   45HTM   C22212124   7.606  12.115   3.107 -0.2546 -0.1320 -0.7941
   45HTM   C22312125   7.733  12.181   3.091 -0.3362  0.0070 -0.8683
   45HTM   C22412126   7.839  12.096   3.090 -0.1909  0.1747 -0.2956
   45HTM    S2312127   7.787  11.924   3.109  0.0621  0.1699  0.3874
   46TAL   C22512128   7.740  12.334   3.100 -0.5309 -0.3613  0.1606
   46TAL   C22612129   7.654  12.427   3.020 -0.2320  0.4652 -0.3020
   46TAL   C22712130   7.659  12.403   2.875 -0.0393 -0.5576  0.1480
   46TAL   C22812131   7.630  12.533   2.794  0.1480  0.7093  0.1850
   46TAL   C22912132   7.483  12.560   2.789  0.4718 -0.2308 -0.2783
   46TAL   C23012133   7.436  12.704   2.771 -0.6775  0.2645  0.0221
   47HTM   C23112134   7.986  12.115   3.068  0.4464 -0.3030  0.4013
   47HTM   C23212135   8.062  12.021   3.004  0.5326 -0.2308  0.3971
   47HTM   C23312136   8.198  12.062   2.982  0.4454 -0.0299  0.2284
   47HTM   C23412137   8.226  12.187   3.028  0.2926  0.0510  0.1040
   47HTM    S2412138   8.082  12.264   3.104  0.2465 -0.1216  0.1909
   48TAL   C23512139   8.290  11.982   2.893 -0.1688 -0.3909 -0.1459
   48TAL   C23612140   8.416  12.034   2.824 -0.0173  0.4073 -0.1630
   48TAL   C23712141   8.483  11.921   2.755 -0.3927 -0.3968 -0.0814
   48TAL   C23812142   8.578  11.975   2.656 -0.0095  0.1067 -0.1112
   48TAL   C23912143   8.638  11.863   2.577 -1.4034 -0.5168 -0.8922
   48TAL   C24012144   8.758  11.907   2.489  0.2214 -0.1182  0.3935
    1HTM     C112145   5.026   1.125   6.459  0.2948  0.1519 -0.0933
    1HTM     C212146   5.117   1.047   6.393 -0.2291 -0.0275 -0.6151
    1HTM     C312147   5.071   0.912   6.370 -0.7818  0.1726 -0.7112
    1HTM     C412148   4.946   0.888   6.418 -0.6784  0.5047 -0.2629
    1HTM     S112149   4.875   1.034   6.496  0.1305  0.5911  0.3200
    2TAL     C512150   5.160   0.811   6.299 -0.2200 -0.0668 -0.5895
    2TAL     C612151   5.288   0.865   6.234 -0.1456 -0.5493 -0.2784
    2TAL     C712152   5.415   0.881   6.317 -0.0968 -0.3681 -0.0758
    2TAL     C812153   5.541   0.925   6.252 -0.2836  0.3835 -0.1746
    2TAL     C912154   5.540   1.065   6.197  0.1813  0.3819 -0.4125
    2TAL    C1012155   5.668   1.109   6.127  0.4396  0.1318  0.1213
    3HTM    C1112156   4.863   0.770   6.412 -0.1450  0.2258 -0.3062
    3HTM    C1212157   4.897   0.639   6.395 -0.0246  0.2442 -0.2098
    3HTM    C1312158   4.784   0.550   6.389  0.0620  0.1247 -0.0541
    3HTM    C1412159   4.664   0.613   6.402  0.0067  0.0152 -0.0318
    3HTM     S212160   4.684   0.791   6.423 -0.1592  0.0549 -0.2071
    4TAL    C1512161   4.800   0.396   6.373  0.1495 -0.0214  0.0434
    4TAL    C1612162   4.852   0.319   6.494  0.0222 -0.0088 -0.5876
    4TAL    C1712163   4.875   0.177   6.447  0.5515 -0.4667  0.1588
    4TAL    C1812164   4.964   0.097   6.549  0.4284 -0.5283  0.1803
    4TAL    C1912165   5.092   0.158   6.607 -0.3528  0.1201  0.1984
    4TAL    C2012166   5.122   0.087   6.734 -0.4091 -0.6147  0.0122
    5HTM    C2112167   4.528   0.564   6.394 -0.4205 -0.1012 -0.1686
    5HTM    C2212168   4.448   0.584   6.286 -0.7699  0.0676  0.1178
    5HTM    C2312169   4.319   0.522   6.297 -0.8087  0.2232  0.5233
    5HTM    C2412170   4.300   0.455   6.415 -0.4886  0.1731  0.5463
    5HTM     S312171   4.446   0.466   6.521 -0.1105 -0.0765  0.0539
    6TAL    C2512172   4.230   0.540   6.177 -0.3243 -0.3151 -1.1681
    6TAL    C2612173   4.145   0.675   6.165 -0.5175  0.0600 -0.1699
    6TAL    C2712174   4.046   0.706   6.275  0.0825 -0.3459 -0.5654
    6TAL    C2812175   3.936   0.812   6.240 -0.6462 -0.0606  0.0643
    6TAL    C2912176   3.997   0.941   6.182 -0.6416 -0.6664 -1.1681
    6TAL    C3012177   3.948   0.967   6.038  0.3372 -0.0296 -0.2369
    7HTM    C3112178   4.190   0.368   6.457  0.1284 -0.1729  0.2213
    7HTM    C3212179   4.154   0.329   6.582  0.5469 -0.9199  0.1130
    7HTM    C3312180   4.042   0.239   6.585  0.6678 -1.0765 -0.0570
    7HTM    C3412181   3.992   0.210   6.462  0.3411 -0.4488 -0.0786
    7HTM     S412182   4.084   0.294   6.331 -0.1482  0.3952  0.1160
    8TAL    C3512183   3.982   0.191   6.718 -0.6671  0.1702  0.3364
    8TAL    C3612184   4.062   0.086   6.788 -0.5370 -0.3844 -0.0329
    8TAL    C3712185   4.183   0.135   6.866 -0.3327  0.1442  0.1620
    8TAL    C3812186   4.264   0.027   6.940 -0.7290  0.0358  0.4365
    8TAL    C3912187   4.351   0.090   7.044 -0.5198  0.0262 -0.1971
    8TAL    C4012188   4.433  -0.019   7.103  0.1445 -1.1195 -0.2286
    9HTM    C4112189   3.899   0.103   6.420  0.0052  0.2431 -0.3586
    9HTM    C4212190   3.791   0.050   6.483 -0.0829  0.4850 -0.3061
    9HTM    C4312191   3.726  -0.055   6.409 -0.0886  0.3262 -0.0763
    9HTM    C4412192   3.786  -0.082   6.290 -0.0049 -0.0379  0.0461
    9HTM     S512193   3.929   0.024   6.261  0.0886 -0.2079 -0.1201
   10TAL    C4512194   3.612  -0.141   6.458  0.0030 -0.6415  0.5823
   10TAL    C4612195   3.538  -0.101   6.587 -0.3937 -0.2669 -0.5600
   10TAL    C4712196   3.444   0.015   6.565  0.5514 -0.6745  1.2584
   10TAL    C4812197   3.364   0.024   6.693 -0.1056 -0.5536  0.5174
   10TAL    C4912198   3.249   0.121   6.683  0.0226 -0.0500  0.1589
   10TAL    C5012199   3.167   0.133   6.813 -0.6273  0.5144 -0.2184
   11HTM    C5112200   3.765  -0.171   6.180 -0.2543 -0.1630  0.3448
   11HTM    C5212201   3.794  -0.152   6.048 -0.1653  0.2351  0.4222
   11HTM    C5312202   3.792  -0.273   5.970  0.0188  0.4516  0.0811
   11HTM    C5412203   3.761  -0.384   6.042  0.0706  0.2178 -0.2564
   11HTM     S612204   3.732  -0.345   6.215 -0.1110 -0.2968 -0.1689
   12TAL    C5512205   3.836  -0.280   5.830  0.7392  0.0033  0.5066
   12TAL    C5612206   3.853  -0.160   5.724 -0.4183 -0.0813  0.3555
   12TAL    C5712207   3.728  -0.077   5.707 -0.0818 -0.6073 -0.3508
   12TAL    C5812208   3.738   0.026   5.593  0.3010  0.3767 -0.3653
   12TAL    C5912209   3.616   0.114   5.555 -0.1972  0.4669  0.2048
   12TAL    C6012210   3.533   0.172   5.668  0.0987  0.3049  0.1853
   13HTM    C6112211   3.755  -0.522   6.002 -0.0300 -0.0754  0.5811
   13HTM    C6212212   3.637  -0.584   5.974 -0.0050 -0.2794  0.9243
   13HTM    C6312213   3.651  -0.721   5.932  0.1377 -0.1383  0.5119
   13HTM    C6412214   3.781  -0.763   5.927  0.2213  0.1739 -0.1456
   13HTM     S712215   3.895  -0.632   5.977  0.1259  0.3145 -0.2964
   14TAL    C6512216   3.526  -0.804   5.894  0.3391 -0.0786 -0.2590
   14TAL    C6612217   3.395  -0.775   5.977  0.9220 -0.4832 -0.0366
   14TAL    C6712218   3.401  -0.801   6.127  0.0804  0.0955 -0.7407
   14TAL    C6812219   3.287  -0.729   6.207  0.1313 -0.5237 -0.3572
   14TAL    C6912220   3.284  -0.575   6.196 -0.2860  1.2462 -0.4583
   14TAL    C7012221   3.387  -0.502   6.281 -0.5034 -0.2857 -0.4200
   15HTM    C7112222   3.839  -0.890   5.885 -0.2251  0.1617 -0.4763
   15HTM    C7212223   3.770  -1.005   5.856 -0.3229  0.2649 -0.6597
   15HTM    C7312224   3.855  -1.119   5.835 -0.4362  0.1428 -0.4611
   15HTM    C7412225   3.988  -1.092   5.846 -0.4244 -0.0531 -0.1267
   15HTM     S812226   4.017  -0.918   5.886 -0.2687 -0.0993 -0.0356
   16TAL    C7512227   3.796  -1.256   5.798 -0.3498 -0.6597 -0.4167
   16TAL    C7612228   3.648  -1.282   5.817 -0.5428 -0.6937 -0.3598
   16TAL    C7712229   3.609  -1.424   5.810 -0.0630 -0.3015  0.9967
   16TAL    C7812230   3.460  -1.454   5.849  0.4047 -0.6050  0.2676
   16TAL    C7912231   3.433  -1.405   5.992 -0.2117  0.3300  0.3991
   16TAL    C8012232   3.361  -1.270   5.991  0.0639  0.2535  0.3747
   17HTM    C8112233   4.108  -1.184   5.845  0.1525  0.4738  0.3552
   17HTM    C8212234   4.114  -1.320   5.855 -0.2534  0.4394  0.1762
   17HTM    C8312235   4.248  -1.373   5.847 -0.4346  0.0267 -0.1690
   17HTM    C8412236   4.344  -1.277   5.830 -0.1662 -0.2531 -0.2535
   17HTM     S912237   4.271  -1.112   5.824  0.3399 -0.0156  0.0998
   18TAL    C8512238   4.282  -1.519   5.860 -0.0658  0.0345 -0.1839
   18TAL    C8612239   4.203  -1.622   5.782  0.2200 -0.5467 -0.4283
   18TAL    C8712240   4.062  -1.647   5.832  0.8039  0.0767 -0.1684
   18TAL    C8812241   3.973  -1.715   5.728  0.3989  0.2070  0.1933
   18TAL    C8912242   3.924  -1.627   5.608  0.8708 -0.0220 -0.7606
   18TAL    C9012243   3.880  -1.717   5.495 -0.6929  0.1475  0.3436
   19HTM    C9112244   4.485  -1.294   5.817  0.3595  0.0530 -0.3045
   19HTM    C9212245   4.562  -1.286   5.704  0.6509  0.1123 -0.1037
   19HTM    C9312246   4.700  -1.318   5.726  0.5996  0.1206  0.2408
   19HTM    C9412247   4.729  -1.351   5.855  0.2692  0.0677  0.3025
   19HTM    S1012248   4.583  -1.343   5.960 -0.0046  0.0025 -0.0724
   20TAL    C9512249   4.799  -1.312   5.611  0.1192 -0.3682 -0.2254
   20TAL    C9612250   4.782  -1.393   5.484 -0.3249  0.1104 -0.1026
   20TAL    C9712251   4.790  -1.543   5.500  0.5010 -0.1756 -0.2852
   20TAL    C9812252   4.663  -1.609   5.547  0.3929  0.5076  0.7118
   20TAL    C9912253   4.679  -1.758   5.575  0.5923 -0.8887 -0.3426
   20TAL   C10012254   4.547  -1.818   5.614 -0.1273  0.2535 -1.2664
   21HTM   C10112255   4.851  -1.388   5.923 -0.2855  0.1055  0.4319
   21HTM   C10212256   4.925  -1.502   5.907 -0.4640  0.0098  0.2825
   21HTM   C10312257   5.033  -1.515   6.001 -0.3860 -0.2074  0.1650
   21HTM   C10412258   5.042  -1.411   6.089 -0.1480 -0.2774  0.2248
   21HTM    S1112259   4.913  -1.288   6.059 -0.0029 -0.0725  0.4361
   22TAL   C10512260   5.116  -1.639   5.998 -0.0658  0.4097 -0.3142
   22TAL   C10612261   5.164  -1.711   5.873 -0.1051 -0.3358  0.2389
   22TAL   C10712262   5.234  -1.841   5.900  0.2422  0.1577 -0.2772
   22TAL   C10812263   5.264  -1.909   5.766 -0.4881 -0.7659  0.0658
   22TAL   C10912264   5.307  -2.052   5.779 -0.0765 -0.2574 -0.2556
   22TAL   C11012265   5.443  -2.055   5.842  0.8593  0.2938 -0.4097
   23HTM   C11112266   5.130  -1.381   6.201  0.1123  0.2193  0.1817
   23HTM   C11212267   5.112  -1.282   6.293  0.3965  0.3610  0.0873
   23HTM   C11312268   5.209  -1.282   6.399  0.5932  0.3884 -0.0937
   23HTM   C11412269   5.302  -1.381   6.388  0.4599  0.2672 -0.1367
   23HTM    S1212270   5.273  -1.483   6.242  0.0711  0.1086  0.0490
   24TAL   C11512271   5.203  -1.197   6.524  1.2271 -1.0189 -0.2054
   24TAL   C11612272   5.173  -1.041   6.504  0.2150 -0.1782 -0.2399
   24TAL   C11712273   5.170  -0.962   6.636 -0.5966 -0.8043  0.4266
   24TAL   C11812274   5.110  -0.826   6.636  0.7551  0.8896  0.4319
   24TAL   C11912275   5.112  -0.771   6.773 -0.0640  0.2060 -0.6097
   24TAL   C12012276   5.001  -0.815   6.873 -0.1908 -0.1056  0.1602
   25HTM   C12112277   5.415  -1.420   6.469  0.0977 -0.4972  0.0246
   25HTM   C12212278   5.418  -1.415   6.606 -0.0050 -0.9675  0.0441
   25HTM   C12312279   5.551  -1.431   6.661  0.0453 -0.4940  0.0622
   25HTM   C12412280   5.648  -1.447   6.566  0.1866  0.3370  0.0566
   25HTM    S1312281   5.579  -1.444   6.399  0.2677  0.5884  0.0274
   26TAL   C12512282   5.577  -1.417   6.810  0.4074 -0.3146  0.0419
   26TAL   C12612283   5.479  -1.332   6.891  0.4147  0.9823  0.3211
   26TAL   C12712284   5.465  -1.184   6.848 -0.2531 -0.2200 -0.0963
   26TAL   C12812285   5.378  -1.121   6.958  0.2744 -0.5924  0.2516
   26TAL   C12912286   5.378  -0.964   6.963  0.2536  0.0802  0.4591
   26TAL   C13012287   5.321  -0.911   7.097 -0.1766 -0.0466 -0.2907
   27HTM   C13112288   5.790  -1.470   6.587  0.1361 -0.5906  0.4973
   27HTM   C13212289   5.867  -1.580   6.562  0.1936 -0.7343  1.2906
   27HTM   C13312290   6.005  -1.564   6.598  0.1740 -0.4268  1.2262
   27HTM   C13412291   6.035  -1.441   6.649  0.1020 -0.0484  0.3838
   27HTM    S1412292   5.888  -1.336   6.657  0.0526 -0.0510 -0.3997
   28TAL   C13512293   6.108  -1.673   6.587  0.0997  0.1955 -0.1974
   28TAL   C13612294   6.129  -1.737   6.453 -0.5082  0.2685  0.2292
   28TAL   C13712295   6.259  -1.819   6.439  0.6643 -0.4573  0.1751
   28TAL   C13812296   6.391  -1.739   6.429 -0.3015 -0.3516  0.2580
   28TAL   C13912297   6.509  -1.834   6.444  0.1177  0.1012 -0.5475
   28TAL   C14012298   6.629  -1.744   6.469 -0.4317  0.3225  0.6258
   29HTM   C14112299   6.154  -1.395   6.712 -0.2903 -0.0066 -0.0071
   29HTM   C14212300   6.167  -1.321   6.826 -0.2408  0.4900 -0.3288
   29HTM   C14312301   6.304  -1.298   6.864 -0.2260  0.5052 -0.3915
   29HTM   C14412302   6.395  -1.354   6.779 -0.2645  0.0204 -0.1175
   29HTM    S1512303   6.314  -1.441   6.643 -0.3219 -0.4972  0.2434
   30TAL   C14512304   6.337  -1.202   6.980 -0.6798 -0.3493 -0.2996
   30TAL   C14612305   6.247  -1.108   7.049  1.2151  0.2947  1.0496
   30TAL   C14712306   6.180  -1.010   6.961 -0.0931 -0.1273  0.0627
   30TAL   C14812307   6.100  -0.903   7.033  0.0457  0.1024  0.0222
   30TAL   C14912308   6.023  -0.815   6.933 -0.1965  0.3850  0.5885
   30TAL   C15012309   5.922  -0.727   6.998  0.9992 -0.2317  0.2078
   31HTM   C15112310   6.543  -1.355   6.790  0.2172  0.0661 -0.1807
   31HTM   C15212311   6.629  -1.285   6.869  0.2689  0.3481 -0.4876
   31HTM   C15312312   6.767  -1.302   6.833  0.2365  0.3362 -0.6075
   31HTM   C15412313   6.787  -1.386   6.727  0.1605  0.0453 -0.3922
   31HTM    S1612314   6.630  -1.449   6.664  0.1231 -0.2390 -0.0186
   32TAL   C15512315   6.880  -1.241   6.923  0.7010 -0.2759 -0.3410
   32TAL   C15612316   6.886  -1.086   6.911  0.3888 -0.0811 -0.2775
   32TAL   C15712317   7.006  -1.021   6.974  0.3938  0.4311 -0.1138
   32TAL   C15812318   7.003  -0.871   6.948  0.0721  0.0307  0.3618
   32TAL   C15912319   7.025  -0.826   6.797  0.1773 -1.1098  0.4005
   32TAL   C16012320   6.989  -0.676   6.772 -0.1646  0.3687 -0.8303
   33HTM   C16112321   6.907  -1.415   6.654  0.2271 -0.3042  0.7190
   33HTM   C16212322   6.921  -1.525   6.575  0.2232 -0.8361  1.4431
   33HTM   C16312323   7.049  -1.531   6.507  0.0103 -0.9956  1.0540
   33HTM   C16412324   7.131  -1.427   6.535 -0.1481 -0.5851  0.0332
   33HTM    S1712325   7.054  -1.311   6.650 -0.0397  0.0397 -0.5199
   34TAL   C16512326   7.062  -1.642   6.402 -0.0674 -0.5058  0.4893
   34TAL   C16612327   7.086  -1.789   6.445  0.3398 -0.3924 -0.3645
   34TAL   C16712328   7.227  -1.815   6.486 -0.4770  0.7615  0.4727
   34TAL   C16812329   7.339  -1.792   6.392  0.4227 -0.6348 -0.2338
   34TAL   C16912330   7.472  -1.839   6.442  0.8050  0.1159 -0.0648
   34TAL   C17012331   7.520  -1.779   6.572 -0.1681  0.0341 -0.0335
   35HTM   C17112332   7.267  -1.405   6.493 -0.4166  0.6384  0.3034
   35HTM   C17212333   7.315  -1.400   6.366 -0.7854  0.7105  0.1681
   35HTM   C17312334   7.458  -1.390   6.357 -0.7610  0.0865 -0.2487
   35HTM   C17412335   7.520  -1.388   6.479 -0.3733 -0.4611 -0.4311
   35HTM    S1812336   7.401  -1.398   6.614 -0.0061 -0.2296 -0.0878
   36TAL   C17512337   7.514  -1.377   6.216 -0.6498  0.7880 -0.2300
   36TAL   C17612338   7.508  -1.231   6.169  0.2037  0.0374 -0.0015
   36TAL   C17712339   7.590  -1.128   6.247  0.6654 -0.2692 -0.2258
   36TAL   C17812340   7.543  -0.984   6.245 -0.3845  0.0864  0.1018
   36TAL   C17912341   7.579  -0.907   6.117  0.2451  0.1923  0.5665
   36TAL   C18012342   7.507  -0.776   6.103 -0.1244 -0.0100 -0.0873
   37HTM   C18112343   7.662  -1.400   6.515 -0.1955  0.3273  0.2059
   37HTM   C18212344   7.710  -1.411   6.642 -0.0517  0.2649  0.1471
   37HTM   C18312345   7.853  -1.416   6.650 -0.0522 -0.0768 -0.0417
   37HTM   C18412346   7.915  -1.409   6.528 -0.1961 -0.2748 -0.1276
   37HTM    S1912347   7.796  -1.396   6.394 -0.3432 -0.0435  0.0257
   38TAL   C18512348   7.921  -1.435   6.788  0.0215  0.7347  0.5151
   38TAL   C18612349   8.057  -1.381   6.823 -0.6414 -0.8300  0.1196
   38TAL   C18712350   8.064  -1.231   6.864 -0.6488  0.1295  0.2768
   38TAL   C18812351   8.199  -1.188   6.912  0.3537 -0.0805  0.2920
   38TAL   C18912352   8.204  -1.052   6.981 -0.3668 -0.0904  0.1973
   38TAL   C19012353   8.337  -0.992   7.015 -0.4858 -0.1979 -0.5169
   39HTM   C19112354   8.052  -1.410   6.491 -0.1836 -0.0449 -0.1948
   39HTM   C19212355   8.126  -1.298   6.467 -0.0920 -0.0069  0.2501
   39HTM   C19312356   8.266  -1.324   6.447 -0.0157  0.0241  0.7362
   39HTM   C19412357   8.299  -1.456   6.457 -0.0507  0.0100  0.6616
   39HTM    S2012358   8.154  -1.558   6.491 -0.1822 -0.0438 -0.0331
   40TAL   C19512359   8.353  -1.206   6.428 -0.0431 -0.1082  0.0246
   40TAL   C19612360   8.380  -1.099   6.529  0.1508 -0.0914  0.3619
   40TAL   C19712361   8.455  -0.970   6.478 -0.7700 -0.0687 -0.1426
   40TAL   C19812362   8.364  -0.874   6.405  0.8130  0.4020 -0.5886
   40TAL   C19912363   8.443  -0.770   6.336  0.3236 -0.1181  0.4713
   40TAL   C20012364   8.357  -0.650   6.302  0.4331  0.6350  0.5368
   41HTM   C20112365   8.422  -1.525   6.425  0.0530 -0.4318 -0.1794
   41HTM   C20212366   8.435  -1.660   6.413  0.0033 -0.4401 -0.1357
   41HTM   C20312367   8.571  -1.704   6.397  0.0024 -0.5083  0.0398
   41HTM   C20412368   8.662  -1.603   6.397  0.0516 -0.5522  0.1300
   41HTM    S2112369   8.582  -1.442   6.417  0.1025 -0.5098 -0.0006
   42TAL   C20512370   8.610  -1.857   6.389 -0.7366  0.3408  1.0981
   42TAL   C20612371   8.500  -1.962   6.404 -0.2695  0.9020  0.5050
   42TAL   C20712372   8.556  -2.100   6.379 -0.4976  0.3339 -0.2204
   42TAL   C20812373   8.443  -2.207   6.401 -0.0892  0.0977  0.4963
   42TAL   C20912374   8.470  -2.339   6.336 -0.4209 -0.0156  0.4778
   42TAL   C21012375   8.369  -2.442   6.353  0.6079  0.9196  0.0876
   43HTM   C21112376   8.808  -1.601   6.363 -0.2420  0.1677 -0.3852
   43HTM   C21212377   8.866  -1.500   6.292 -0.3552  0.1879 -0.4478
   43HTM   C21312378   9.005  -1.523   6.262 -0.3200  0.3414 -0.4003
   43HTM   C21412379   9.053  -1.641   6.310 -0.1798  0.4382 -0.3016
   43HTM    S2212380   8.926  -1.734   6.398 -0.0815  0.3424 -0.2606
   44TAL   C21512381   9.063  -1.399   6.187  0.5353 -0.8451  0.1062
   44TAL   C21612382   9.195  -1.414   6.109 -0.0826  0.2285 -0.1093
   44TAL   C21712383   9.198  -1.504   5.990 -0.3000  0.1435  0.1781
   44TAL   C21812384   9.330  -1.511   5.926  0.1264 -0.3267  0.2462
   44TAL   C21912385   9.340  -1.599   5.804 -0.7500  0.2703  0.0897
   44TAL   C22012386   9.486  -1.616   5.759  0.1648  0.6323  0.0380
   45HTM   C22112387   9.183  -1.715   6.297  0.0702  0.4569  0.2972
   45HTM   C22212388   9.196  -1.848   6.267 -0.0001  0.3598  0.6969
   45HTM   C22312389   9.331  -1.888   6.240 -0.0438  0.2396  0.6571
   45HTM   C22412390   9.422  -1.786   6.248 -0.0069  0.2450  0.2273
   45HTM    S2312391   9.342  -1.631   6.292  0.0867  0.4038 -0.1636
   46TAL   C22512392   9.370  -2.034   6.194  0.2876 -0.4863  0.2772
   46TAL   C22612393   9.352  -2.133   6.301  0.1440 -0.4160 -0.5569
   46TAL   C22712394   9.388  -2.277   6.283  0.0059 -0.6455 -0.6837
   46TAL   C22812395   9.530  -2.320   6.242  0.2215 -0.0506  0.0389
   46TAL   C22912396   9.645  -2.258   6.327  0.6414  0.2049  0.4315
   46TAL   C23012397   9.786  -2.282   6.276  0.1617 -0.3796  0.0024
   47HTM   C23112398   9.554  -1.779   6.195  0.0578  0.1752  0.0814
   47HTM   C23212399   9.612  -1.682   6.119  0.0789  0.1683  0.0892
   47HTM   C23312400   9.747  -1.712   6.079 -0.0311  0.0038 -0.1667
   47HTM   C23412401   9.792  -1.832   6.126 -0.1361 -0.1150 -0.3696
   47HTM    S2412402   9.667  -1.917   6.224 -0.1039 -0.0281 -0.2524
   48TAL   C23512403   9.828  -1.619   5.998 -1.2408 -0.8809  0.6061
   48TAL   C23612404   9.983  -1.651   6.000 -0.2803 -0.8067 -0.0151
   48TAL   C23712405  10.058  -1.546   5.920  0.3785  0.1856  0.2345
   48TAL   C23812406  10.190  -1.586   5.869 -0.3851  0.9374  0.4050
   48TAL   C23912407  10.270  -1.480   5.810 -0.3745 -0.3717 -0.1083
   48TAL   C24012408  10.418  -1.518   5.775 -0.5973 -0.1558  0.9238
    1HTM     C112409   8.947   5.267   2.161 -0.0795  0.1725  0.4433
    1HTM     C212410   8.839   5.239   2.082 -0.0792  0.3288  0.3867
    1HTM     C312411   8.795   5.103   2.090  0.0472  0.2627 -0.0405
    1HTM     C412412   8.869   5.026   2.174  0.1424  0.0569 -0.3095
    1HTM     S112413   9.002   5.121   2.252  0.0797 -0.0713 -0.0422
    2TAL     C512414   8.682   5.046   1.992 -0.5011 -0.2536  0.0656
    2TAL     C612415   8.538   5.056   2.036  0.3674 -0.7203  0.1255
    2TAL     C712416   8.472   5.186   2.070  0.1553  0.1380  0.2138
    2TAL     C812417   8.329   5.180   2.121 -0.0438 -0.4161 -0.4409
    2TAL     C912418   8.280   5.319   2.171 -0.8863  0.4275  0.5368
    2TAL    C1012419   8.145   5.322   2.231  0.1073 -0.2988 -0.2923
    3HTM    C1112420   8.864   4.882   2.209  0.1897 -0.0445  0.2592
    3HTM    C1212421   8.970   4.814   2.263  0.1245 -0.2820  0.0950
    3HTM    C1312422   8.940   4.678   2.299 -0.0262 -0.3219 -0.1843
    3HTM    C1412423   8.811   4.641   2.271 -0.0755 -0.1144 -0.2327
    3HTM     S212424   8.718   4.777   2.198  0.0657  0.1492  0.0728
    4TAL    C1512425   9.042   4.591   2.366 -0.2629 -0.7400  0.1767
    4TAL    C1612426   9.193   4.606   2.349 -0.4821  0.2406  0.2778
    4TAL    C1712427   9.238   4.595   2.205  0.0803 -0.3473  0.2116
    4TAL    C1812428   9.302   4.459   2.173  0.1680  0.5549 -0.8499
    4TAL    C1912429   9.407   4.454   2.057 -0.7646 -0.0713  0.2630
    4TAL    C2012430   9.433   4.308   2.015  0.8485 -0.0814 -0.0373
    5HTM    C2112431   8.740   4.520   2.283  0.1974  0.1413 -0.0535
    5HTM    C2212432   8.784   4.392   2.265  0.3519  0.2224 -0.2536
    5HTM    C2312433   8.679   4.294   2.271  0.4473  0.1016 -0.5759
    5HTM    C2412434   8.555   4.346   2.293  0.3660 -0.0709 -0.6217
    5HTM     S312435   8.561   4.526   2.309  0.1602 -0.0951 -0.2588
    6TAL    C2512436   8.708   4.153   2.218 -0.4220  0.0977 -0.3421
    6TAL    C2612437   8.743   4.054   2.326  0.9270 -0.1767 -0.6707
    6TAL    C2712438   8.748   3.913   2.282  0.4255 -0.2421 -0.0076
    6TAL    C2812439   8.793   3.801   2.374  0.7215  0.5647 -0.5246
    6TAL    C2912440   8.786   3.657   2.333  0.5126  0.2291 -0.2906
    6TAL    C3012441   8.855   3.626   2.202  0.2417  0.8162  0.2058
    7HTM    C3112442   8.421   4.286   2.305  0.2815  0.1341  0.1620
    7HTM    C3212443   8.380   4.156   2.310  0.3657  0.1061  0.1415
    7HTM    C3312444   8.237   4.141   2.302  0.3734  0.0174  0.1841
    7HTM    C3412445   8.169   4.259   2.292  0.2949 -0.0225  0.2372
    7HTM     S412446   8.282   4.400   2.291  0.2052  0.0495  0.2374
    8TAL    C3512447   8.174   4.001   2.299  0.6173 -0.3865 -0.0734
    8TAL    C3612448   8.240   3.886   2.375 -0.4486  0.5135  0.4511
    8TAL    C3712449   8.139   3.774   2.377  0.5370  0.4306 -0.2249
    8TAL    C3812450   8.196   3.641   2.437  0.3633  0.0347  0.5115
    8TAL    C3912451   8.108   3.516   2.437  0.0095 -0.5631  0.2779
    8TAL    C4012452   7.987   3.534   2.517  0.5557  0.0439 -0.4213
    9HTM    C4112453   8.029   4.296   2.278  0.3755 -0.2521  0.0735
    9HTM    C4212454   7.969   4.397   2.207  0.4876 -0.1924  0.0635
    9HTM    C4312455   7.826   4.401   2.222  0.4630 -0.2065 -0.1638
    9HTM    C4412456   7.777   4.303   2.304  0.3326 -0.2768 -0.3273
    9HTM     S512457   7.908   4.198   2.368  0.2290 -0.3312 -0.2060
   10TAL    C4512458   7.733   4.493   2.145  0.1010 -0.0953  0.0402
   10TAL    C4612459   7.767   4.641   2.158  0.0633 -0.4668 -0.2984
   10TAL    C4712460   7.670   4.742   2.081 -0.0850  0.2250  0.5640
   10TAL    C4812461   7.684   4.893   2.101 -0.8078  0.0514 -0.1548
   10TAL    C4912462   7.827   4.948   2.070  0.6076  0.2084  0.1209
   10TAL    C5012463   7.844   5.093   2.116  0.1953 -0.1904  0.3610
   11HTM    C5112464   7.639   4.279   2.346  0.0950 -0.0647 -0.0534
   11HTM    C5212465   7.577   4.158   2.359  0.2880 -0.1426  0.1754
   11HTM    C5312466   7.439   4.168   2.401  0.3302 -0.2937  0.3493
   11HTM    C5412467   7.397   4.296   2.421  0.1694 -0.3317  0.2530
   11HTM     S612468   7.529   4.415   2.388 -0.0498 -0.1778 -0.0670
   12TAL    C5512469   7.360   4.035   2.413 -0.0060 -0.4151  0.0902
   12TAL    C5612470   7.427   3.915   2.475  0.1823 -0.1179  0.1403
   12TAL    C5712471   7.453   3.800   2.371  0.1225  0.3139  0.5827
   12TAL    C5812472   7.568   3.705   2.417  0.1454 -0.0777 -0.2386
   12TAL    C5912473   7.709   3.767   2.423 -0.3843 -0.6251  0.5514
   12TAL    C6012474   7.763   3.844   2.301  0.1393  0.2382 -0.0646
   13HTM    C6112475   7.271   4.337   2.481 -0.2473 -0.2509 -0.0337
   13HTM    C6212476   7.231   4.465   2.507  0.0465 -0.2124  0.2371
   13HTM    C6312477   7.100   4.474   2.566  0.1314 -0.0448  0.4011
   13HTM    C6412478   7.040   4.353   2.586 -0.0979  0.0446  0.2554
   13HTM     S712479   7.146   4.217   2.530 -0.4411 -0.0776 -0.1031
   14TAL    C6512480   7.052   4.607   2.613  0.2518 -0.1142 -0.0701
   14TAL    C6612481   6.934   4.680   2.549  0.0487 -0.8985  0.0895
   14TAL    C6712482   6.955   4.726   2.404  0.3855 -0.2364  0.6010
   14TAL    C6812483   6.847   4.818   2.342 -0.4230  0.0371 -0.1090
   14TAL    C6912484   6.815   4.951   2.411 -0.8766  0.1621  0.1550
   14TAL    C7012485   6.933   5.044   2.439  0.4529 -1.0014  0.5266
   15HTM    C7112486   6.913   4.312   2.646 -0.0151 -0.1354 -0.3085
   15HTM    C7212487   6.859   4.187   2.652 -0.2520 -0.0460 -0.5943
   15HTM    C7312488   6.727   4.183   2.709 -0.2060  0.0560 -0.4815
   15HTM    C7412489   6.681   4.305   2.747  0.0661  0.0445 -0.1096
   15HTM     S812490   6.801   4.436   2.714  0.2870 -0.0974  0.1288
   16TAL    C7512491   6.635   4.062   2.723  0.4605 -0.6906  0.7469
   16TAL    C7612492   6.686   3.928   2.660 -0.0465  0.1170  0.0283
   16TAL    C7712493   6.596   3.806   2.664  0.4987  0.6714  0.1139
   16TAL    C7812494   6.455   3.832   2.618 -0.8144  0.1441  0.0376
   16TAL    C7912495   6.352   3.727   2.646  0.0214 -0.2272  0.3812
   16TAL    C8012496   6.211   3.758   2.589  0.0671  0.4525  0.7175
   17HTM    C8112497   6.558   4.354   2.808  0.1142  0.4964  0.0666
   17HTM    C8212498   6.439   4.324   2.749  0.2606  0.6542 -0.3115
   17HTM    C8312499   6.330   4.408   2.792  0.1292  0.4611 -0.2638
   17HTM    C8412500   6.367   4.502   2.883 -0.1166  0.1566  0.1509
   17HTM     S912501   6.542   4.492   2.923 -0.2028  0.0892  0.5161
   18TAL    C8512502   6.204   4.378   2.707 -0.0236  0.3403  0.4009
   18TAL    C8612503   6.089   4.480   2.688  0.3387  0.2863  0.2750
   18TAL    C8712504   6.127   4.610   2.626  0.0198 -0.2573 -0.6040
   18TAL    C8812505   6.009   4.709   2.646  0.2450 -0.6040 -0.2898
   18TAL    C8912506   6.005   4.837   2.563 -0.4958  0.3855  0.0592
   18TAL    C9012507   6.112   4.936   2.592 -0.7999 -0.9509 -0.5424
   19HTM    C9112508   6.284   4.601   2.949 -0.0165 -0.0525  0.0566
   19HTM    C9212509   6.300   4.733   2.977  0.0963 -0.1378  0.4035
   19HTM    C9312510   6.182   4.796   3.030  0.0758 -0.1173  0.3332
   19HTM    C9412511   6.076   4.712   3.042 -0.0529 -0.0169 -0.0677
   19HTM    S1012512   6.117   4.545   2.988 -0.1589  0.0609 -0.3894
   20TAL    C9512513   6.193   4.935   3.103 -0.0716 -0.0968  0.0594
   20TAL    C9612514   6.288   5.042   3.061  0.6705  0.3820 -0.4106
   20TAL    C9712515   6.252   5.090   2.916  0.0913  0.5939  0.2533
   20TAL    C9812516   6.358   5.188   2.865 -0.1669  0.2156  0.0395
   20TAL    C9912517   6.345   5.204   2.712  0.4713  0.4197 -0.5797
   20TAL   C10012518   6.427   5.332   2.674  0.0770  0.0427  0.2166
   21HTM   C10112519   5.937   4.734   3.083 -0.2301 -0.1447 -0.1548
   21HTM   C10212520   5.834   4.677   3.013 -0.3049 -0.6158  0.3376
   21HTM   C10312521   5.703   4.717   3.060 -0.2582 -0.5674  0.4267
   21HTM   C10412522   5.707   4.805   3.164 -0.1480 -0.0590  0.0022
   21HTM    S1112523   5.876   4.844   3.213 -0.0938  0.4011 -0.5470
   22TAL   C10512524   5.576   4.673   2.999 -0.4864 -0.3512  0.7519
   22TAL   C10612525   5.543   4.524   2.988 -0.5613 -0.8282  0.5354
   22TAL   C10712526   5.637   4.442   2.906 -0.0278 -0.6437  0.1732
   22TAL   C10812527   5.580   4.308   2.859  0.1731  0.0633 -0.2495
   22TAL   C10912528   5.645   4.263   2.736 -0.5902 -0.4317 -0.4207
   22TAL   C11012529   5.577   4.145   2.674  0.4423 -0.3893  0.6402
   23HTM   C11112530   5.604   4.880   3.229 -0.3010 -0.1481 -0.3997
   23HTM   C11212531   5.624   5.008   3.270  0.1988 -0.2255 -0.3995
   23HTM   C11312532   5.509   5.067   3.333  0.5889  0.0515  0.0588
   23HTM   C11412533   5.401   4.984   3.339  0.3857  0.3400  0.4079
   23HTM    S1212534   5.436   4.824   3.266 -0.3186  0.2841  0.1831
   24TAL   C11512535   5.519   5.214   3.380 -0.1305  0.0503  0.0636
   24TAL   C11612536   5.657   5.282   3.392  0.0261 -0.0623 -0.1587
   24TAL   C11712537   5.659   5.419   3.468 -0.3173  0.3684 -0.0904
   24TAL   C11812538   5.796   5.486   3.481 -0.1211  0.4299 -0.1122
   24TAL   C11912539   5.889   5.412   3.574 -0.1250 -0.0793 -0.2028
   24TAL   C12012540   6.010   5.501   3.588  0.0695  0.4491 -0.5910
   25HTM   C12112541   5.264   4.998   3.385 -0.3591 -0.3760  0.0517
   25HTM   C12212542   5.154   4.934   3.338 -0.5085 -0.4628  0.5238
   25HTM   C12312543   5.030   4.992   3.382 -0.3715 -0.1831  0.5394
   25HTM   C12412544   5.046   5.102   3.461 -0.1175  0.1165  0.0793
   25HTM    S1312545   5.220   5.140   3.488 -0.0306  0.0689 -0.4131
   26TAL   C12512546   4.897   4.937   3.329  0.1571 -0.0922 -0.2044
   26TAL   C12612547   4.871   4.783   3.326 -0.0569 -0.1819 -0.1967
   26TAL   C12712548   4.730   4.751   3.260 -0.3629  0.1470  0.0877
   26TAL   C12812549   4.710   4.601   3.222 -0.1998 -0.4386  0.1342
   26TAL   C12912550   4.574   4.574   3.151 -0.0955  0.0301 -0.0383
   26TAL   C13012551   4.548   4.427   3.119 -0.2171  0.0542  0.3599
   27HTM   C13112552   4.956   5.201   3.520  0.0161  0.5622 -0.5480
   27HTM   C13212553   4.988   5.326   3.565 -0.0288  0.8607 -1.3312
   27HTM   C13312554   4.875   5.404   3.608  0.0145  0.8328 -1.1668
   27HTM   C13412555   4.756   5.338   3.596  0.0920  0.5132 -0.2584
   27HTM    S1412556   4.778   5.172   3.529  0.1172  0.2201  0.4657
   28TAL   C13512557   4.887   5.543   3.668 -0.3374 -0.1874 -1.1861
   28TAL   C13612558   5.007   5.628   3.652 -0.1615 -0.6913  0.1845
   28TAL   C13712559   5.027   5.676   3.511 -0.4874  0.3184 -0.0596
   28TAL   C13812560   5.165   5.733   3.464  0.1596 -0.1104 -0.4748
   28TAL   C13912561   5.300   5.651   3.481  0.0965  0.1802 -0.0854
   28TAL   C14012562   5.306   5.504   3.435  0.5367 -0.2774 -0.4693
   29HTM   C14112563   4.617   5.382   3.623  0.4191 -0.5252 -0.0504
   29HTM   C14212564   4.555   5.499   3.588  0.8965 -0.2038  0.1706
   29HTM   C14312565   4.414   5.500   3.615  0.8759  0.2739  0.0489
   29HTM   C14412566   4.368   5.385   3.671  0.3833  0.3164 -0.2647
   29HTM    S1512567   4.500   5.264   3.694 -0.0971 -0.2480 -0.4322
   30TAL   C14512568   4.344   5.636   3.596  0.7683  0.0166 -0.1961
   30TAL   C14612569   4.393   5.753   3.675  0.2411  0.0513 -0.7809
   30TAL   C14712570   4.426   5.738   3.824  0.0314 -0.4494  0.2452
   30TAL   C14812571   4.574   5.710   3.852  0.2078 -0.1367 -0.1374
   30TAL   C14912572   4.609   5.712   4.000 -0.0471 -0.2426 -0.4463
   30TAL   C15012573   4.758   5.703   4.009 -0.3562 -0.2751 -0.5091
   31HTM   C15112574   4.238   5.356   3.717  0.0729 -0.2373  0.4510
   31HTM   C15212575   4.179   5.394   3.834  0.1476 -0.4921  0.5723
   31HTM   C15312576   4.038   5.366   3.838  0.1373 -0.4375  0.5751
   31HTM   C15412577   3.989   5.308   3.725  0.0544 -0.1405  0.4558
   31HTM    S1612578   4.119   5.282   3.603 -0.0177  0.0945  0.3298
   32TAL   C15512579   3.949   5.413   3.954 -0.3543  0.2088 -0.2351
   32TAL   C15612580   3.938   5.567   3.977 -0.2792  0.2881  0.5791
   32TAL   C15712581   3.880   5.654   3.867  0.1769 -0.3353 -0.0713
   32TAL   C15812582   3.922   5.805   3.887 -0.3631  0.3158  0.0800
   32TAL   C15912583   4.065   5.847   3.898 -0.0961 -0.5409 -0.1617
   32TAL   C16012584   4.075   5.995   3.882 -0.4219 -0.5817  0.1035
   33HTM   C16112585   3.850   5.286   3.687  0.0815 -0.5045 -0.2403
   33HTM   C16212586   3.765   5.369   3.619  0.4004 -0.6258 -0.7968
   33HTM   C16312587   3.627   5.331   3.630  0.3024 -0.3161 -0.9708
   33HTM   C16412588   3.606   5.220   3.705 -0.0912  0.0414 -0.5469
   33HTM    S1712589   3.760   5.153   3.769 -0.3710  0.0145  0.1102
   34TAL   C16512590   3.518   5.418   3.555 -0.4759  0.1663  0.0872
   34TAL   C16612591   3.453   5.531   3.638 -0.2067 -0.6920 -0.8385
   34TAL   C16712592   3.343   5.596   3.561  0.4378  0.4517 -0.7824
   34TAL   C16812593   3.287   5.712   3.643  1.0096  0.7719  0.0218
   34TAL   C16912594   3.168   5.789   3.589 -0.1094  0.0001 -0.0297
   34TAL   C17012595   3.120   5.892   3.678 -0.0604 -0.0340  0.4688
   35HTM   C17112596   3.481   5.143   3.723 -0.5020 -0.0305 -0.2737
   35HTM   C17212597   3.355   5.195   3.729 -0.6402 -0.3591 -0.3263
   35HTM   C17312598   3.253   5.096   3.751 -0.3457 -0.5689  0.0983
   35HTM   C17412599   3.301   4.969   3.763  0.0167 -0.4003  0.4746
   35HTM    S1812600   3.481   4.964   3.745  0.0144  0.0399  0.3209
   36TAL   C17512601   3.110   5.147   3.765  0.0816 -0.4136  0.0105
   36TAL   C17612602   3.091   5.299   3.768 -0.5624  0.4414  0.4989
   36TAL   C17712603   2.949   5.349   3.772  0.0651  0.2686  0.3474
   36TAL   C17812604   2.947   5.503   3.759  0.0046 -0.3538 -0.0917
   36TAL   C17912605   2.814   5.568   3.767  0.4215 -0.5354  0.1381
   36TAL   C18012606   2.822   5.708   3.842 -0.2442  0.0826 -0.0270
   37HTM   C18112607   3.237   4.838   3.783 -0.0563 -0.3119 -0.0585
   37HTM   C18212608   3.113   4.802   3.740  0.1171 -0.5798 -0.3331
   37HTM   C18312609   3.086   4.661   3.755  0.3717 -0.6332 -0.3591
   37HTM   C18412610   3.189   4.591   3.810  0.3924 -0.4054 -0.1043
   37HTM    S1912611   3.330   4.697   3.847  0.0898 -0.1039  0.1903
   38TAL   C18512612   2.957   4.602   3.703 -0.7600 -0.8390 -0.5777
   38TAL   C18612613   2.960   4.535   3.565 -0.1095 -0.3892  0.3006
   38TAL   C18712614   2.862   4.431   3.533  0.1190 -0.3605 -0.1948
   38TAL   C18812615   2.862   4.309   3.626  0.3142  0.2756 -0.2808
   38TAL   C18912616   2.793   4.197   3.563  0.0264 -0.5111  0.7024
   38TAL   C19012617   2.775   4.087   3.665 -0.2336 -0.7005 -0.2884
   39HTM   C19112618   3.196   4.453   3.845  0.1766 -0.1366 -0.4611
   39HTM   C19212619   3.099   4.377   3.904  0.2238 -0.1788 -0.4380
   39HTM   C19312620   3.137   4.240   3.924  0.3465 -0.1261 -0.3060
   39HTM   C19412621   3.263   4.210   3.880  0.3928 -0.0436 -0.2285
   39HTM    S2012622   3.344   4.355   3.809  0.2842 -0.0256 -0.3170
   40TAL   C19512623   3.040   4.144   3.991 -0.2887  0.1060 -0.1215
   40TAL   C19612624   3.027   4.162   4.137 -0.0000 -0.6000 -0.4614
   40TAL   C19712625   3.140   4.099   4.214 -0.4357 -0.8828  0.0229
   40TAL   C19812626   3.142   3.950   4.227  0.0332  0.1708  0.1273
   40TAL   C19912627   3.265   3.901   4.298  0.0185 -0.0889 -0.2030
   40TAL   C20012628   3.265   3.751   4.321 -0.2138  1.3279  0.0526
   41HTM   C20112629   3.334   4.079   3.887 -0.2295 -0.3275  0.0211
   41HTM   C20212630   3.465   4.072   3.923 -0.2254 -0.1359  0.0449
   41HTM   C20312631   3.508   3.940   3.961 -0.0367 -0.0762  0.0411
   41HTM   C20412632   3.409   3.846   3.954  0.1031 -0.2219  0.0146
   41HTM    S2112633   3.253   3.918   3.899  0.0066 -0.4480 -0.0080
   42TAL   C20512634   3.649   3.916   4.004  0.0536 -0.4221 -0.1974
   42TAL   C20612635   3.700   4.000   4.117  0.5133 -0.0370 -0.3905
   42TAL   C20712636   3.638   3.974   4.256  0.3875 -1.1965  0.3366
   42TAL   C20812637   3.700   4.062   4.364 -0.1557  0.5710  0.1309
   42TAL   C20912638   3.838   4.021   4.413  0.7051  0.2666 -0.2377
   42TAL   C21012639   3.902   4.130   4.507 -0.2254 -0.1834  0.2021
   43HTM   C21112640   3.404   3.706   3.991  0.2964  0.0526 -0.2149
   43HTM   C21212641   3.503   3.625   4.037  0.3487  0.1707 -0.1183
   43HTM   C21312642   3.457   3.495   4.079  0.4146  0.2356  0.1533
   43HTM   C21412643   3.322   3.478   4.066  0.4123  0.1669  0.2636
   43HTM    S2212644   3.243   3.625   3.998  0.3261  0.0138  0.0318
   44TAL   C21512645   3.562   3.401   4.140 -0.2329 -0.1960  0.0163
   44TAL   C21612646   3.646   3.445   4.260  0.2580 -0.4554  0.0926
   44TAL   C21712647   3.569   3.538   4.363 -0.4207  0.5628  0.4137
   44TAL   C21812648   3.659   3.598   4.473 -0.0357  0.3645  0.4560
   44TAL   C21912649   3.605   3.719   4.543  0.2771 -0.3275  0.2630
   44TAL   C22012650   3.709   3.747   4.641  0.4503 -0.5998 -0.2469
   45HTM   C22112651   3.231   3.366   4.092  0.1219  0.0941  0.2823
   45HTM   C22212652   3.105   3.350   4.041  0.0104  0.2095  0.5257
   45HTM   C22312653   3.050   3.219   4.061 -0.0330  0.2302  0.5426
   45HTM   C22412654   3.134   3.134   4.126  0.0454  0.1304  0.3122
   45HTM    S2312655   3.291   3.213   4.168  0.1813  0.0017  0.0541
   46TAL   C22512656   2.918   3.183   4.005  0.4447 -0.4619  0.6200
   46TAL   C22612657   2.918   3.132   3.857  0.0509 -0.6233  0.2427
   46TAL   C22712658   2.776   3.115   3.801 -0.0320  0.3540 -0.5605
   46TAL   C22812659   2.703   2.985   3.856 -0.1268 -0.0970 -0.5684
   46TAL   C22912660   2.569   2.976   3.792 -0.5962 -0.1380 -0.2770
   46TAL   C23012661   2.476   2.877   3.849 -0.3328 -0.0923 -0.0866
   47HTM   C23112662   3.125   2.994   4.163  0.4244 -0.1613  0.0188
   47HTM   C23212663   3.123   2.896   4.068  0.5803 -0.2580  0.1135
   47HTM   C23312664   3.154   2.765   4.119  0.4393 -0.2158  0.3092
   47HTM   C23412665   3.180   2.762   4.253  0.1760 -0.0872  0.3635
   47HTM    S2412666   3.168   2.927   4.325  0.0850 -0.0085  0.1704
   48TAL   C23512667   3.173   2.647   4.021 -0.4159  0.5198 -0.5844
   48TAL   C23612668   3.226   2.504   4.059  0.2006 -1.2334 -0.2400
   48TAL   C23712669   3.363   2.492   4.131  0.9757 -0.1021  0.2627
   48TAL   C23812670   3.487   2.526   4.049 -0.0785 -0.0630  0.4090
   48TAL   C23912671   3.611   2.486   4.122  0.3387 -0.0181 -0.3529
   48TAL   C24012672   3.751   2.514   4.054  0.3320 -0.9208  0.0526
    1HTM     C112673   4.075   5.978   3.497  0.0937 -0.2018  0.0694
    1HTM     C212674   3.962   5.904   3.518  0.1450 -0.3507 -0.1714
    1HTM     C312675   3.847   5.954   3.447  0.1765 -0.3641 -0.2321
    1HTM     C412676   3.872   6.065   3.372  0.1492 -0.2255 -0.0375
    1HTM     S112677   4.045   6.116   3.385  0.0809 -0.0667  0.2396
    2TAL     C512678   3.716   5.878   3.447  0.3062 -0.2785  0.3246
    2TAL     C612679   3.634   5.871   3.577 -0.7826  0.4357 -0.6130
    2TAL     C712680   3.621   6.000   3.656  0.3888 -0.2157 -0.0929
    2TAL     C812681   3.534   6.113   3.599  0.5682  0.6253 -0.3147
    2TAL     C912682   3.419   6.126   3.695 -0.1606  0.6144 -0.3039
    2TAL    C1012683   3.315   6.212   3.637  0.3203 -0.5593  0.3569
    3HTM    C1112684   3.793   6.149   3.284  0.2084  0.0185 -0.1075
    3HTM    C1212685   3.658   6.141   3.263  0.2272 -0.0801 -0.1915
    3HTM    C1312686   3.608   6.239   3.170  0.2074 -0.0901 -0.1917
    3HTM    C1412687   3.704   6.321   3.120  0.1736  0.0000 -0.1077
    3HTM     S212688   3.867   6.282   3.187  0.1640  0.1063 -0.0213
    4TAL    C1512689   3.455   6.252   3.128 -0.6973  0.0260 -0.2542
    4TAL    C1612690   3.350   6.169   3.214 -0.3183 -0.4608 -0.5712
    4TAL    C1712691   3.207   6.169   3.156  0.1211 -0.5461  0.3417
    4TAL    C1812692   3.196   6.093   3.028 -0.3170 -0.0661 -0.5014
    4TAL    C1912693   3.057   6.074   2.983 -0.2883 -0.5103  0.2612
    4TAL    C2012694   3.050   5.973   2.873  0.3803  0.2859  0.5877
    5HTM    C2112695   3.701   6.445   3.039  0.1062  0.4473 -0.1185
    5HTM    C2212696   3.810   6.511   2.993 -0.0589  0.9806  0.2518
    5HTM    C2312697   3.780   6.635   2.926 -0.4195  0.9243  0.3121
    5HTM    C2412698   3.646   6.663   2.920 -0.5291  0.3478 -0.0122
    5HTM     S312699   3.548   6.534   3.000 -0.1828 -0.1723 -0.4221
    6TAL    C2512700   3.892   6.712   2.862  0.4262  0.4212  0.1239
    6TAL    C2612701   3.964   6.659   2.740  0.5374 -1.0805 -0.4427
    6TAL    C2712702   4.038   6.527   2.750  0.6224 -0.2678  0.2853
    6TAL    C2812703   4.153   6.520   2.850 -0.9301 -0.5536  0.2462
    6TAL    C2912704   4.227   6.388   2.864  0.9595  0.2085 -0.9419
    6TAL    C3012705   4.334   6.335   2.764 -0.3893  0.3059 -0.5638
    7HTM    C3112706   3.575   6.779   2.880 -0.2571 -0.0057 -0.2808
    7HTM    C3212707   3.446   6.778   2.835 -0.2375  0.1962 -0.3428
    7HTM    C3312708   3.401   6.906   2.787 -0.0706  0.3092 -0.2017
    7HTM    C3412709   3.495   7.004   2.795  0.0366  0.1937 -0.0322
    7HTM     S412710   3.650   6.942   2.864 -0.0653 -0.0693 -0.0373
    8TAL    C3512711   3.258   6.912   2.728 -0.6943  0.2246 -0.4207
    8TAL    C3612712   3.148   6.866   2.823  0.0066  0.0795 -0.1147
    8TAL    C3712713   3.004   6.843   2.776 -0.1182  0.1210  0.7949
    8TAL    C3812714   2.923   6.796   2.890  0.5084  0.0550  0.5366
    8TAL    C3912715   2.794   6.719   2.842 -0.4783  0.2702 -0.0069
    8TAL    C4012716   2.732   6.650   2.962 -0.6748  0.1156  0.5080
    9HTM    C4112717   3.481   7.139   2.750 -0.1105  0.0885 -0.5548
    9HTM    C4212718   3.532   7.191   2.635 -0.2495  0.2162 -0.5584
    9HTM    C4312719   3.493   7.328   2.611 -0.1922  0.2763 -0.3070
    9HTM    C4412720   3.412   7.380   2.708 -0.0094  0.1946 -0.1116
    9HTM     S512721   3.379   7.259   2.838  0.1053  0.0344 -0.2311
   10TAL    C4512722   3.564   7.412   2.504  0.3842  0.2548 -0.9756
   10TAL    C4612723   3.606   7.341   2.380  0.6223  0.3523 -0.2831
   10TAL    C4712724   3.693   7.436   2.295  0.4775  0.6590  0.3365
   10TAL    C4812725   3.704   7.395   2.152  0.0940  1.1318  0.3365
   10TAL    C4912726   3.839   7.423   2.084  0.5266 -0.1955  0.5818
   10TAL    C5012727   3.839   7.388   1.934  0.0213  0.2895  0.2544
   11HTM    C5112728   3.353   7.510   2.729  0.1079 -0.1614  0.0097
   11HTM    C5212729   3.391   7.629   2.674  0.3573 -0.0679  0.3777
   11HTM    C5312730   3.306   7.739   2.709  0.4356 -0.0491  0.5076
   11HTM    C5412731   3.203   7.705   2.791  0.2460 -0.1277  0.2387
   11HTM     S612732   3.206   7.529   2.831 -0.0483 -0.2330 -0.2029
   12TAL    C5512733   3.325   7.874   2.647 -0.6737  0.1991 -0.5374
   12TAL    C5612734   3.318   7.899   2.491  0.1115 -0.1422 -0.2533
   12TAL    C5712735   3.420   7.822   2.402 -0.5772  0.0636  0.7093
   12TAL    C5812736   3.576   7.828   2.426 -0.0064  0.2897 -0.1183
   12TAL    C5912737   3.658   7.796   2.304  0.7124 -0.2738  0.3890
   12TAL    C6012738   3.807   7.782   2.325 -0.8098  0.0798 -0.2549
   13HTM    C6112739   3.104   7.791   2.854 -0.0740 -0.0774 -0.0646
   13HTM    C6212740   2.975   7.759   2.887 -0.1549  0.0577 -0.2496
   13HTM    C6312741   2.901   7.868   2.945 -0.1189  0.1290 -0.3369
   13HTM    C6412742   2.974   7.983   2.957 -0.0105  0.0485 -0.2185
   13HTM     S712743   3.142   7.963   2.895  0.0548 -0.1250  0.0143
   14TAL    C6512744   2.750   7.852   2.970  0.3163  0.1371  0.2210
   14TAL    C6612745   2.690   7.873   3.111 -0.1025  0.2189 -0.8732
   14TAL    C6712746   2.729   7.769   3.216 -0.0921 -0.3032  0.2921
   14TAL    C6812747   2.690   7.630   3.182  0.0709  0.5131  0.5747
   14TAL    C6912748   2.744   7.530   3.276 -0.0789  0.0452  0.7587
   14TAL    C7012749   2.672   7.395   3.283 -0.5222 -0.0373  0.0403
   15HTM    C7112750   2.939   8.122   3.008  0.4713 -0.1840  0.6123
   15HTM    C7212751   3.026   8.220   3.045  0.3048 -0.1140  0.8243
   15HTM    C7312752   2.963   8.347   3.070  0.1684 -0.1111  0.4694
   15HTM    C7412753   2.828   8.347   3.052  0.2312 -0.1780 -0.0131
   15HTM     S812754   2.769   8.184   3.002  0.4692 -0.2517 -0.0572
   16TAL    C7512755   3.038   8.464   3.127  0.1891 -0.4292 -0.6311
   16TAL    C7612756   3.183   8.446   3.164 -0.4237 -0.2580 -0.8782
   16TAL    C7712757   3.251   8.576   3.215 -0.4120 -0.1215 -0.4999
   16TAL    C7812758   3.397   8.563   3.228 -0.6301  0.0679  0.0310
   16TAL    C7912759   3.480   8.683   3.267  0.0539  0.6226 -0.1886
   16TAL    C8012760   3.619   8.636   3.307 -0.5659 -0.0222 -0.7834
   17HTM    C8112761   2.728   8.442   3.087 -0.1323 -0.1562  0.0267
   17HTM    C8212762   2.601   8.410   3.124 -0.1644 -0.2227 -0.1415
   17HTM    C8312763   2.519   8.525   3.152 -0.1804 -0.2751  0.0230
   17HTM    C8412764   2.583   8.644   3.138 -0.1604 -0.2490  0.3163
   17HTM     S912765   2.755   8.620   3.086 -0.1198 -0.1549  0.4084
   18TAL    C8512766   2.365   8.519   3.155  0.9574  0.5610  0.6565
   18TAL    C8612767   2.297   8.497   3.295  0.0081  0.3282 -0.6764
   18TAL    C8712768   2.148   8.507   3.303 -0.3365  0.0579  0.1958
   18TAL    C8812769   2.058   8.610   3.240 -0.4051  0.3939  0.4840
   18TAL    C8912770   2.059   8.740   3.316 -0.1662 -0.6094  0.3728
   18TAL    C9012771   1.941   8.824   3.279  0.0289 -0.1448  1.1381
   19HTM    C9112772   2.545   8.782   3.166 -0.1976 -0.1213 -0.1984
   19HTM    C9212773   2.635   8.884   3.165 -0.2126 -0.1025  0.0656
   19HTM    C9312774   2.575   9.014   3.179 -0.2626 -0.1283  0.0911
   19HTM    C9412775   2.440   9.012   3.192 -0.2857 -0.1664 -0.1533
   19HTM    S1012776   2.376   8.843   3.187 -0.2461 -0.1728 -0.4369
   20TAL    C9512777   2.667   9.134   3.192  0.6564 -0.6218  0.2669
   20TAL    C9612778   2.757   9.164   3.072  0.2831  0.3370 -0.2074
   20TAL    C9712779   2.855   9.281   3.088  0.4377 -0.1690  0.1680
   20TAL    C9812780   2.844   9.388   2.980 -0.3006 -0.1533  0.5317
   20TAL    C9912781   2.714   9.458   2.956  0.5217 -0.0131 -0.2923
   20TAL   C10012782   2.749   9.560   2.856  0.0655  0.1577  0.3220
   21HTM   C10112783   2.340   9.120   3.187  0.0300  0.0556 -0.0220
   21HTM   C10212784   2.355   9.246   3.238 -0.1060  0.0118  0.1287
   21HTM   C10312785   2.233   9.321   3.244 -0.1866 -0.1255  0.2135
   21HTM   C10412786   2.124   9.253   3.198 -0.1119 -0.1865  0.1271
   21HTM    S1112787   2.168   9.087   3.143  0.0672 -0.0744 -0.0693
   22TAL   C10512788   2.224   9.461   3.295 -0.1181 -0.1601  0.0598
   22TAL   C10612789   2.296   9.577   3.229 -0.0545 -0.5164 -0.2570
   22TAL   C10712790   2.260   9.713   3.294 -0.1428  0.0843  0.3774
   22TAL   C10812791   2.120   9.772   3.284 -0.8159 -0.8057  0.1133
   22TAL   C10912792   2.057   9.792   3.148  0.4097  0.0585 -0.1061
   22TAL   C11012793   1.924   9.855   3.164 -0.1468 -0.2839  0.0875
   23HTM   C11112794   1.985   9.299   3.175 -0.1063  0.0453  0.0169
   23HTM   C11212795   1.872   9.225   3.196 -0.1055  0.0416  0.0082
   23HTM   C11312796   1.750   9.297   3.170 -0.0997 -0.0583 -0.2981
   23HTM   C11412797   1.770   9.426   3.129 -0.0961 -0.1308 -0.5230
   23HTM    S1212798   1.946   9.466   3.120 -0.0998 -0.0780 -0.3641
   24TAL   C11512799   1.609   9.236   3.190  0.4147 -0.0768 -0.5923
   24TAL   C11612800   1.574   9.119   3.096  0.3614 -0.4523 -0.5391
   24TAL   C11712801   1.569   9.153   2.953  0.3445  0.6347  0.3077
   24TAL   C11812802   1.531   9.016   2.890  0.2174 -0.0604  0.0792
   24TAL   C11912803   1.538   9.002   2.741 -0.2554  0.2882  0.4964
   24TAL   C12012804   1.667   9.025   2.657  0.4956 -0.6237  0.2737
   25HTM   C12112805   1.674   9.533   3.093  0.0692  0.1445  0.1939
   25HTM   C12212806   1.585   9.603   3.169  0.1790  0.2348  0.2389
   25HTM   C12312807   1.530   9.718   3.101  0.0095  0.1004  0.1473
   25HTM   C12412808   1.577   9.735   2.975 -0.2295 -0.0924  0.0324
   25HTM    S1312809   1.695   9.607   2.930 -0.2592 -0.1193  0.0310
   26TAL   C12512810   1.425   9.802   3.165  0.5463  0.4285  0.2067
   26TAL   C12612811   1.465   9.877   3.285  0.3641  0.0749 -0.4784
   26TAL   C12712812   1.548  10.003   3.272  0.7374 -0.4094 -0.5296
   26TAL   C12812813   1.485  10.106   3.179 -0.2964  0.5014  0.0035
   26TAL   C12912814   1.548  10.246   3.205 -0.1486 -0.1836  0.2949
   26TAL   C13012815   1.486  10.346   3.103 -0.1135  0.3629  0.5460
   27HTM   C13112816   1.557   9.836   2.875  0.1949  0.0525  0.0529
   27HTM   C13212817   1.638   9.920   2.804  0.2191 -0.1847 -0.2017
   27HTM   C13312818   1.567  10.012   2.720  0.2387 -0.2747 -0.3170
   27HTM   C13412819   1.432   9.999   2.726  0.2295 -0.1062 -0.1500
   27HTM    S1412820   1.383   9.868   2.840  0.1950  0.1817  0.1679
   28TAL   C13512821   1.633  10.121   2.639 -0.1866  0.0170  0.3758
   28TAL   C13612822   1.680  10.258   2.692 -0.0450  0.6147  0.4057
   28TAL   C13712823   1.766  10.267   2.815  0.1598 -0.0089 -0.2207
   28TAL   C13812824   1.889  10.182   2.820  0.1863 -0.1994  0.4799
   28TAL   C13912825   1.979  10.203   2.940 -0.4341  0.1456  0.1166
   28TAL   C14012826   2.111  10.120   2.931 -0.2252 -0.4479 -0.0418
   29HTM   C14112827   1.327  10.061   2.655 -0.0231 -0.5315  0.0376
   29HTM   C14212828   1.325  10.190   2.610  0.6089 -0.6679 -0.3965
   29HTM   C14312829   1.213  10.220   2.525  0.8085 -0.4283 -0.5772
   29HTM   C14412830   1.129  10.114   2.505  0.3288 -0.1089 -0.2809
   29HTM    S1512831   1.186   9.967   2.593 -0.4181 -0.0861  0.2533
   30TAL   C14512832   1.194  10.358   2.473  0.4886 -0.4937  0.2104
   30TAL   C14612833   1.123  10.453   2.565  0.8259  0.1440 -0.4813
   30TAL   C14712834   1.097  10.583   2.493 -0.0969 -0.4034  0.6585
   30TAL   C14812835   1.030  10.591   2.359 -0.2772  0.0478 -0.2991
   30TAL   C14912836   1.055  10.723   2.292  0.4009  0.4518  0.3742
   30TAL   C15012837   1.015  10.734   2.153 -0.0409  0.6517  0.4191
   31HTM   C15112838   1.010  10.102   2.420  0.0186  0.3003 -0.6600
   31HTM   C15212839   0.950  10.192   2.337 -0.2365  0.1047 -0.6880
   31HTM   C15312840   0.827  10.144   2.280 -0.3766 -0.0626 -0.2556
   31HTM   C15412841   0.793  10.018   2.318 -0.2283  0.0055  0.1019
   31HTM    S1612842   0.916   9.948   2.431  0.1024  0.2883 -0.0811
   32TAL   C15512843   0.746  10.241   2.195  0.0506  0.2557 -0.4797
   32TAL   C15612844   0.719  10.386   2.236  0.2865  0.0581  0.4830
   32TAL   C15712845   0.647  10.462   2.131 -0.2990  0.4456  0.1444
   32TAL   C15812846   0.531  10.414   2.043  0.4441 -0.2317  0.2211
   32TAL   C15912847   0.398  10.411   2.111 -0.3493 -0.6046 -0.1916
   32TAL   C16012848   0.295  10.374   2.008 -0.0416 -0.3486  0.0033
   33HTM   C16112849   0.696   9.931   2.254  0.1543  0.0165  0.0094
   33HTM   C16212850   0.574   9.963   2.202  0.2360  0.1528 -0.0989
   33HTM   C16312851   0.506   9.851   2.142  0.0988  0.1974 -0.0259
   33HTM   C16412852   0.575   9.734   2.149 -0.0874  0.0951  0.1381
   33HTM    S1712853   0.734   9.756   2.232 -0.1041 -0.0667  0.2134
   34TAL   C16512854   0.375   9.863   2.064 -0.4017 -0.1945  0.5358
   34TAL   C16612855   0.340   9.981   1.983 -0.4288 -0.1038  0.3073
   34TAL   C16712856   0.208   9.983   1.901  0.5458 -0.3224  0.0765
   34TAL   C16812857   0.081  10.005   1.982  0.3255  0.1623 -0.1563
   34TAL   C16912858  -0.047   9.994   1.912  0.0916  0.8209  0.2269
   34TAL   C17012859  -0.171  10.028   1.991 -0.2914  0.2760  0.4943
   35HTM   C17112860   0.557   9.594   2.105 -0.0773 -0.1103 -0.0434
   35HTM   C17212861   0.646   9.492   2.122  0.1146  0.0080 -0.3487
   35HTM   C17312862   0.597   9.364   2.080  0.3073  0.0165 -0.6049
   35HTM   C17412863   0.469   9.367   2.031  0.2621 -0.0955 -0.4952
   35HTM    S1812864   0.402   9.534   2.035 -0.0293 -0.2212 -0.0561
   36TAL   C17512865   0.682   9.247   2.101 -0.3443 -0.1228 -0.2366
   36TAL   C17612866   0.802   9.226   2.006  0.1837  0.0551  0.2356
   36TAL   C17712867   0.890   9.106   2.042  0.0583 -0.1800  0.6591
   36TAL   C17812868   0.831   8.963   2.023  0.2458  0.3222  0.2846
   36TAL   C17912869   0.930   8.849   2.045 -0.2247  0.1302 -0.5424
   36TAL   C18012870   1.019   8.840   2.172  0.1943 -0.7155  0.1242
   37HTM   C18112871   0.386   9.268   1.974  0.1785  0.2714  0.1735
   37HTM   C18212872   0.285   9.289   1.885 -0.1885  0.5297  0.6460
   37HTM   C18312873   0.211   9.171   1.852 -0.4297  0.6556  0.7346
   37HTM   C18412874   0.255   9.059   1.917 -0.2467  0.4932  0.3297
   37HTM    S1912875   0.395   9.095   2.024  0.2483  0.1662 -0.1990
   38TAL   C18512876   0.085   9.174   1.763 -1.0252 -0.0579  0.5547
   38TAL   C18612877  -0.012   9.291   1.745  0.6877  0.7470 -0.4781
   38TAL   C18712878  -0.081   9.321   1.871  0.4000  0.4585  0.1784
   38TAL   C18812879  -0.186   9.432   1.872 -0.6447 -0.2967 -0.3081
   38TAL   C18912880  -0.164   9.576   1.815 -0.6469 -0.6296 -0.3255
   38TAL   C19012881  -0.040   9.646   1.876 -0.2374 -0.3859  0.0301
   39HTM   C19112882   0.217   8.916   1.905  0.3833 -0.3338 -0.4041
   39HTM   C19212883   0.116   8.860   1.832  0.4801 -0.5093 -0.4022
   39HTM   C19312884   0.111   8.716   1.842  0.3520 -0.4706  0.0792
   39HTM   C19412885   0.207   8.663   1.923  0.1574 -0.2673  0.4442
   39HTM    S2012886   0.312   8.792   1.993  0.1207 -0.1063  0.2064
   40TAL   C19512887   0.009   8.636   1.764  0.1114 -0.2039 -0.7226
   40TAL   C19612888  -0.142   8.629   1.810  0.1092 -0.4654 -0.1068
   40TAL   C19712889  -0.185   8.606   1.947  0.4099 -0.5076 -0.2559
   40TAL   C19812890  -0.153   8.470   2.003  0.6892  0.3818 -0.2384
   40TAL   C19912891  -0.223   8.449   2.137  0.3243  0.6646  0.4367
   40TAL   C20012892  -0.187   8.322   2.210 -0.8743 -0.4918  0.2174
   41HTM   C20112893   0.232   8.532   1.975 -0.2624  0.1675  0.0973
   41HTM   C20212894   0.257   8.505   2.106 -0.0503  0.1125  0.0457
   41HTM   C20312895   0.261   8.364   2.136  0.1401  0.0987 -0.0466
   41HTM   C20412896   0.239   8.284   2.028  0.0732  0.1418 -0.0651
   41HTM    S2112897   0.211   8.381   1.878 -0.2379  0.2047  0.0331
   42TAL   C20512898   0.285   8.317   2.273  0.1552  0.0063 -0.1924
   42TAL   C20612899   0.429   8.329   2.308 -0.2088 -0.3904 -0.0351
   42TAL   C20712900   0.438   8.276   2.452  0.0032  0.1120 -0.0370
   42TAL   C20812901   0.571   8.286   2.519  0.4210 -0.0024  0.5546
   42TAL   C20912902   0.674   8.178   2.472  0.2000 -0.2486  0.2927
   42TAL   C21012903   0.796   8.175   2.560 -0.3676 -0.5636 -0.1931
   43HTM   C21112904   0.232   8.145   2.034  0.1458 -0.2900  0.3400
   43HTM   C21212905   0.116   8.073   2.031  0.1878 -0.3691  0.5549
   43HTM   C21312906   0.135   7.931   2.047  0.3195 -0.3622  0.4668
   43HTM   C21412907   0.266   7.895   2.063  0.3780 -0.2767  0.1849
   43HTM    S2212908   0.375   8.038   2.058  0.2704 -0.1994  0.0075
   44TAL   C21512909   0.019   7.834   2.043 -0.0110 -0.4577 -0.6501
   44TAL   C21612910  -0.113   7.870   2.121 -0.2617 -0.2442 -0.2244
   44TAL   C21712911  -0.117   7.806   2.259  0.3641 -0.2674  0.1068
   44TAL   C21812912  -0.139   7.652   2.283 -0.3071 -0.2910 -0.1532
   44TAL   C21912913  -0.290   7.614   2.251  0.2067 -0.2564 -0.7037
   44TAL   C22012914  -0.304   7.461   2.224  0.6506  0.1308  0.9629
   45HTM   C22112915   0.330   7.764   2.087  0.6957  0.1093  0.3131
   45HTM   C22212916   0.462   7.732   2.077  0.5857 -0.3421  0.2806
   45HTM   C22312917   0.492   7.597   2.115  0.1048 -0.5035  0.0937
   45HTM   C22412918   0.383   7.525   2.155 -0.1518 -0.1758 -0.0161
   45HTM    S2312919   0.232   7.624   2.147  0.1967  0.3675  0.1088
   46TAL   C22512920   0.639   7.548   2.120  0.4094  0.1615  0.0245
   46TAL   C22612921   0.753   7.624   2.052  0.0379  0.0161 -0.3759
   46TAL   C22712922   0.873   7.541   2.049  0.1874  0.3142  0.2603
   46TAL   C22812923   0.990   7.603   1.976 -0.0858 -0.7219 -0.0193
   46TAL   C22912924   1.112   7.516   1.961  0.3443  0.3181  0.1750
   46TAL   C23012925   1.237   7.575   1.893 -0.1241 -0.0346  0.3090
   47HTM   C23112926   0.378   7.383   2.186  0.2560  0.1969 -0.0536
   47HTM   C23212927   0.302   7.280   2.140  0.0769  0.3083 -0.0077
   47HTM   C23312928   0.332   7.153   2.201 -0.0488  0.2577 -0.0497
   47HTM   C23412929   0.431   7.159   2.295  0.0345  0.1075 -0.1277
   47HTM    S2412930   0.495   7.327   2.312  0.2800  0.0180 -0.1541
   48TAL   C23512931   0.245   7.032   2.169 -0.3458  0.1671 -0.3800
   48TAL   C23612932   0.264   6.909   2.258 -0.6056 -0.3895  0.0826
   48TAL   C23712933   0.197   6.773   2.213 -0.7433 -0.2767  0.2665
   48TAL   C23812934   0.230   6.646   2.302 -0.2676  0.2736 -0.0486
   48TAL   C23912935   0.167   6.648   2.439  0.4705  1.2423  0.5708
   48TAL   C24012936   0.207   6.526   2.520 -0.1052  0.0775 -0.4095
    1HTM     C112937   3.008   5.213   1.087 -0.1066  0.0174 -0.0787
    1HTM     C212938   3.125   5.276   1.116 -0.1588  0.1526 -0.1626
    1HTM     C312939   3.240   5.215   1.056 -0.1067  0.1597 -0.0699
    1HTM     C412940   3.211   5.105   0.981 -0.0149  0.0302  0.0847
    1HTM     S112941   3.034   5.070   0.980  0.0131 -0.1122  0.1254
    2TAL     C512942   3.378   5.271   1.074  0.7436  0.2551 -0.1163
    2TAL     C612943   3.439   5.246   1.212 -0.5201 -0.2189 -0.2633
    2TAL     C712944   3.582   5.291   1.218 -0.4417 -0.2278  0.5175
    2TAL     C812945   3.682   5.209   1.297 -0.0773  0.2034 -0.5523
    2TAL     C912946   3.828   5.245   1.271  0.4044 -0.6979  0.2905
    2TAL    C1012947   3.921   5.199   1.379 -0.8914 -0.3253 -0.2891
    3HTM    C1112948   3.300   5.020   0.905 -0.2044 -0.1274 -0.3658
    3HTM    C1212949   3.412   5.056   0.835 -0.2135 -0.1714 -0.4030
    3HTM    C1312950   3.484   4.945   0.780 -0.0385 -0.2291 -0.0623
    3HTM    C1412951   3.428   4.824   0.807  0.1039 -0.2290  0.2347
    3HTM     S212952   3.278   4.841   0.906  0.0274 -0.1551  0.1061
    4TAL    C1512953   3.610   4.963   0.702  0.3636  0.6040  0.1824
    4TAL    C1612954   3.743   5.007   0.777  0.3506 -0.2807  0.1042
    4TAL    C1712955   3.768   5.148   0.835  0.1480 -0.4470  0.4144
    4TAL    C1812956   3.910   5.190   0.863  0.0903  0.2450  0.1659
    4TAL    C1912957   3.986   5.091   0.952 -0.6076 -0.2937  0.3577
    4TAL    C2012958   4.135   5.113   0.945 -1.0108 -0.3195  0.1853
    5HTM    C2112959   3.469   4.686   0.767 -0.0264 -0.3509  0.5711
    5HTM    C2212960   3.381   4.587   0.737 -0.0767 -0.3166  0.6039
    5HTM    C2312961   3.444   4.468   0.685 -0.1582 -0.2735  0.4050
    5HTM    C2412962   3.579   4.477   0.676 -0.1704 -0.2751  0.2208
    5HTM     S312963   3.639   4.637   0.732 -0.0789 -0.3312  0.2846
    6TAL    C2512964   3.361   4.339   0.649 -0.2583  0.3451 -0.1893
    6TAL    C2612965   3.216   4.347   0.604  0.3440 -0.4779 -0.5120
    6TAL    C2712966   3.103   4.380   0.713 -0.0482  0.9757  0.5487
    6TAL    C2812967   3.098   4.265   0.812 -0.0250 -0.1919 -0.8909
    6TAL    C2912968   3.038   4.134   0.754  0.7966 -0.6485  0.4828
    6TAL    C3012969   2.987   4.040   0.859  0.5709 -0.0740  0.4166
    7HTM    C3112970   3.679   4.388   0.628  0.1559  0.3300 -0.5723
    7HTM    C3212971   3.813   4.399   0.653  0.2095  0.4916 -0.9255
    7HTM    C3312972   3.892   4.295   0.591  0.1459  0.4537 -0.9438
    7HTM    C3412973   3.819   4.206   0.519  0.0438  0.2627 -0.6046
    7HTM     S412974   3.643   4.245   0.524  0.0199  0.1154 -0.2328
    8TAL    C3512975   4.048   4.307   0.611  0.9289  0.2665  0.0192
    8TAL    C3612976   4.088   4.224   0.731 -0.3734 -0.2682 -0.0939
    8TAL    C3712977   4.145   4.080   0.708  0.4260  0.0466 -0.2778
    8TAL    C3812978   4.278   4.057   0.636  0.0400  0.2698  0.1682
    8TAL    C3912979   4.314   3.918   0.589  0.1654  0.0752 -0.3611
    8TAL    C4012980   4.453   3.886   0.560  0.0978  0.1737  0.0086
    9HTM    C4112981   3.859   4.102   0.430 -0.3056 -0.2392 -0.6475
    9HTM    C4212982   3.803   3.979   0.411 -0.1359 -0.2707 -0.9509
    9HTM    C4312983   3.885   3.889   0.333  0.2216 -0.1380 -0.7338
    9HTM    C4412984   4.003   3.944   0.292  0.3245 -0.0050 -0.2648
    9HTM     S512985   4.020   4.114   0.350 -0.0245 -0.0374 -0.0595
   10TAL    C4512986   3.840   3.749   0.298 -0.1533 -0.2791  0.0994
   10TAL    C4612987   3.688   3.727   0.325  0.0330 -0.4692 -0.2475
   10TAL    C4712988   3.651   3.581   0.337  0.1452  0.4003 -0.0063
   10TAL    C4812989   3.500   3.567   0.350 -0.2007 -0.0006 -0.6471
   10TAL    C4912990   3.440   3.423   0.348 -0.1393 -0.1181 -0.1754
   10TAL    C5012991   3.456   3.342   0.220  0.4591  0.2495 -0.3116
   11HTM    C5112992   4.118   3.890   0.222  0.0125  0.1169  0.1202
   11HTM    C5212993   4.178   3.959   0.121  0.0484  0.5980  0.4665
   11HTM    C5312994   4.313   3.916   0.094  0.1159  0.8390  0.4180
   11HTM    C5412995   4.356   3.814   0.174  0.1320  0.5416  0.0349
   11HTM     S612996   4.228   3.764   0.291  0.0623 -0.0706 -0.2971
   12TAL    C5512997   4.405   3.987  -0.013 -0.0488  0.4108 -0.7401
   12TAL    C5612998   4.358   4.130  -0.057 -0.1526 -0.1026 -0.1929
   12TAL    C5712999   4.412   4.255   0.009 -0.5970  0.6371  0.1742
   12TAL    C5813000   4.558   4.276  -0.024 -0.2088  0.3148  0.2803
   12TAL    C5913001   4.606   4.415   0.025  0.2662  0.4136  0.1109
   12TAL    C6013002   4.757   4.436  -0.006 -0.2878 -0.0004  0.0474
   13HTM    C6113003   4.486   3.762   0.196 -0.0452 -0.2035  0.2138
   13HTM    C6213004   4.526   3.632   0.208 -0.0184 -0.1754  0.4260
   13HTM    C6313005   4.665   3.617   0.241 -0.0176 -0.0916  0.4618
   13HTM    C6413006   4.732   3.735   0.254 -0.0444 -0.0559  0.2768
   13HTM     S713007   4.623   3.876   0.225 -0.0725 -0.1258  0.0413
   14TAL    C6513008   4.741   3.481   0.249  0.2873  0.5065  0.1485
   14TAL    C6613009   4.732   3.367   0.144  0.1685  0.1413 -0.3350
   14TAL    C6713010   4.616   3.268   0.135 -0.4382 -0.5425 -0.2706
   14TAL    C6813011   4.573   3.190   0.253  0.0106  0.4266  0.6079
   14TAL    C6913012   4.466   3.086   0.213 -0.3952  0.1297  0.0318
   14TAL    C7013013   4.369   3.040   0.324 -0.5286  0.3144 -0.3263
   15HTM    C7113014   4.871   3.762   0.289  0.0176  0.0916 -0.3880
   15HTM    C7213015   4.978   3.677   0.281  0.1786  0.3393 -0.9270
   15HTM    C7313016   5.102   3.737   0.324  0.1113  0.3810 -0.7893
   15HTM    C7413017   5.090   3.866   0.364 -0.1004  0.1652 -0.1453
   15HTM     S813018   4.920   3.924   0.351 -0.2326 -0.1096  0.3410
   16TAL    C7513019   5.225   3.651   0.336  0.0505 -0.0571  0.4902
   16TAL    C7613020   5.235   3.513   0.277  0.3299  0.7032 -0.3739
   16TAL    C7713021   5.375   3.462   0.256  0.5921  0.5392  0.1680
   16TAL    C7813022   5.395   3.312   0.264 -0.1238 -0.1432  0.4290
   16TAL    C7913023   5.543   3.297   0.237  0.1204  0.2764  0.3397
   16TAL    C8013024   5.583   3.151   0.274 -0.4889 -0.8745  0.5530
   17HTM    C8113025   5.189   3.952   0.427 -0.0838 -0.0231  0.3343
   17HTM    C8213026   5.242   3.910   0.546 -0.3798  0.2667  0.5728
   17HTM    C8313027   5.349   3.993   0.594 -0.3443  0.2517  0.5190
   17HTM    C8413028   5.378   4.098   0.512 -0.0214 -0.0491  0.2396
   17HTM     S913029   5.270   4.101   0.367  0.2651 -0.3390  0.0209
   18TAL    C8513030   5.413   3.964   0.725  0.0146 -0.3579 -0.1632
   18TAL    C8613031   5.510   3.847   0.736 -0.1444  0.1514  0.3049
   18TAL    C8713032   5.652   3.859   0.688  0.0176 -0.6795  0.3675
   18TAL    C8813033   5.736   3.771   0.782  0.5194 -0.0232 -0.0100
   18TAL    C8913034   5.885   3.775   0.754  0.2435 -0.1940 -0.3232
   18TAL    C9013035   5.962   3.696   0.857 -0.4139  0.3402 -0.2363
   19HTM    C9113036   5.492   4.194   0.522 -0.0826 -0.1767 -0.5770
   19HTM    C9213037   5.620   4.161   0.554 -0.1657 -0.4170 -0.4892
   19HTM    C9313038   5.713   4.271   0.542 -0.0210 -0.4890 -0.0439
   19HTM    C9413039   5.655   4.387   0.501  0.1722 -0.3029  0.2079
   19HTM    S1013040   5.478   4.367   0.474  0.1868 -0.0209 -0.1003
   20TAL    C9513041   5.865   4.258   0.572 -0.2987 -0.7957 -0.4075
   20TAL    C9613042   5.936   4.149   0.491 -0.1979  0.1881 -0.6990
   20TAL    C9713043   6.086   4.150   0.505  0.0027  0.0422 -0.1982
   20TAL    C9813044   6.157   4.279   0.454 -0.8114 -1.0889 -0.7617
   20TAL    C9913045   6.312   4.270   0.451  0.4409 -0.6307  0.2479
   20TAL   C10013046   6.381   4.391   0.385  0.0934 -0.3403  0.0740
   21HTM   C10113047   5.714   4.510   0.459  0.3640 -0.0266  0.5116
   21HTM   C10213048   5.661   4.636   0.465  0.2594 -0.0651  0.3943
   21HTM   C10313049   5.747   4.737   0.409  0.0741 -0.0772  0.0821
   21HTM   C10413050   5.865   4.689   0.362  0.0376 -0.0477 -0.0386
   21HTM    S1113051   5.877   4.510   0.383  0.2357 -0.0025  0.2347
   22TAL   C10513052   5.704   4.885   0.403 -0.1082  0.2760 -0.4040
   22TAL   C10613053   5.562   4.924   0.362 -0.5014  0.3136 -0.2641
   22TAL   C10713054   5.531   4.927   0.220 -0.0403 -0.2206  0.1018
   22TAL   C10813055   5.383   4.947   0.192 -0.5467 -0.0643  0.4625
   22TAL   C10913056   5.333   4.966   0.055 -0.0881  0.0709  0.5928
   22TAL   C11013057   5.187   5.004   0.037 -0.1945 -0.2424 -0.0588
   23HTM   C11113058   5.980   4.741   0.289  0.1496 -0.2264 -0.1442
   23HTM   C11213059   6.059   4.661   0.212  0.4437 -0.1514  0.0820
   23HTM   C11313060   6.167   4.731   0.148  0.4046 -0.0024  0.1776
   23HTM   C11413061   6.170   4.865   0.175  0.0803  0.0358  0.0244
   23HTM    S1213062   6.035   4.913   0.285 -0.2029 -0.1140 -0.2548
   24TAL   C11513063   6.267   4.661   0.055 -0.1663  0.3774 -0.2133
   24TAL   C11613064   6.231   4.596  -0.079 -0.1336  1.4801  1.1088
   24TAL   C11713065   6.336   4.604  -0.199  0.3311  0.2305 -0.4811
   24TAL   C11813066   6.416   4.732  -0.219 -0.5463 -0.1643  0.8708
   24TAL   C11913067   6.525   4.732  -0.333 -0.1286 -0.3956 -0.0222
   24TAL   C12013068   6.589   4.869  -0.368  0.5599  0.6880 -0.3776
   25HTM   C12113069   6.252   4.975   0.135  0.3786 -0.2101 -0.1551
   25HTM   C12213070   6.308   5.076   0.209  0.3362 -0.2306 -0.0955
   25HTM   C12313071   6.368   5.179   0.130 -0.0055  0.0114 -0.0414
   25HTM   C12413072   6.359   5.158  -0.005 -0.2240  0.2167 -0.0603
   25HTM    S1313073   6.273   5.004  -0.042 -0.0131  0.1189 -0.1480
   26TAL   C12513074   6.451   5.294   0.189 -0.5563  0.4134  0.6098
   26TAL   C12613075   6.440   5.319   0.341 -0.4684  0.2655 -0.2763
   26TAL   C12713076   6.518   5.219   0.427  0.7035 -0.3966  0.2585
   26TAL   C12813077   6.487   5.237   0.577  0.1033 -0.0204 -0.0670
   26TAL   C12913078   6.578   5.344   0.631 -0.0362  0.1937 -1.0588
   26TAL   C13013079   6.551   5.393   0.770  0.1993  0.0807  0.3281
   27HTM   C13113080   6.421   5.229  -0.111  0.0675 -0.0166 -0.0978
   27HTM   C13213081   6.505   5.186  -0.209  0.3173  0.1347  0.0515
   27HTM   C13313082   6.532   5.286  -0.310  0.2849  0.1702  0.0777
   27HTM   C13413083   6.468   5.404  -0.288  0.0104  0.0458 -0.0509
   27HTM    S1413084   6.368   5.399  -0.138 -0.2305 -0.1277 -0.2166
   28TAL   C13513085   6.636   5.266  -0.420  0.4220  0.2634  0.1385
   28TAL   C13613086   6.748   5.170  -0.401  0.0774  0.0315 -0.1483
   28TAL   C13713087   6.867   5.182  -0.500 -0.5408 -0.0007 -0.5458
   28TAL   C13813088   6.984   5.087  -0.462  0.3997  0.4940  0.6051
   28TAL   C13913089   7.117   5.151  -0.493 -0.0926  0.3236  0.4910
   28TAL   C14013090   7.238   5.063  -0.468  1.1230  0.6129  0.3481
   29HTM   C14113091   6.461   5.534  -0.356  0.0981  0.1830  0.3100
   29HTM   C14213092   6.349   5.583  -0.414  0.0613  0.1206  0.3281
   29HTM   C14313093   6.366   5.715  -0.470  0.0517  0.0265  0.0992
   29HTM   C14413094   6.491   5.766  -0.453  0.0815  0.0177 -0.0925
   29HTM    S1513095   6.599   5.650  -0.365  0.1243  0.1275  0.0009
   30TAL   C14513096   6.258   5.801  -0.541 -0.1912 -0.5573  0.0033
   30TAL   C14613097   6.106   5.762  -0.529 -0.0461 -0.5443  0.3426
   30TAL   C14713098   6.047   5.638  -0.593 -0.1153  0.1255 -0.0548
   30TAL   C14813099   6.061   5.617  -0.746  0.3464 -0.3158 -0.1539
   30TAL   C14913100   5.963   5.518  -0.803 -0.1526 -0.4018  0.2132
   30TAL   C15013101   5.992   5.369  -0.777 -0.4554  0.0114 -0.6086
   31HTM   C15113102   6.554   5.879  -0.517 -0.1314  0.1003  0.6444
   31HTM   C15213103   6.683   5.877  -0.563 -0.1922 -0.0868  0.4811
   31HTM   C15313104   6.732   6.007  -0.602 -0.1020 -0.1812  0.2770
   31HTM   C15413105   6.642   6.107  -0.585  0.0273 -0.0660  0.2855
   31HTM    S1613106   6.486   6.046  -0.519  0.0450  0.1727  0.5522
   32TAL   C15513107   6.882   6.021  -0.626  0.4292 -0.6656  0.5831
   32TAL   C15613108   6.967   6.019  -0.499 -0.0015  0.3774  0.1739
   32TAL   C15713109   7.119   6.016  -0.520  0.2922 -0.2103 -0.1086
   32TAL   C15813110   7.189   6.118  -0.604 -0.2618  0.5934 -0.0994
   32TAL   C15913111   7.143   6.257  -0.576  0.0997 -0.1580  0.1452
   32TAL   C16013112   7.235   6.361  -0.635 -0.0199  0.1225 -0.5384
   33HTM   C16113113   6.652   6.254  -0.609  0.1280 -0.0115  0.0696
   33HTM   C16213114   6.552   6.346  -0.617  0.1419  0.0167  0.2303
   33HTM   C16313115   6.599   6.481  -0.636  0.1507  0.0072  0.1850
   33HTM   C16413116   6.735   6.492  -0.643  0.1429 -0.0280 -0.0108
   33HTM    S1713117   6.814   6.331  -0.626  0.1246 -0.0524 -0.1527
   34TAL   C16513118   6.501   6.588  -0.664  1.2386  0.3702  0.6444
   34TAL   C16613119   6.403   6.638  -0.560  0.6915  0.2573 -0.0292
   34TAL   C16713120   6.435   6.605  -0.411 -0.1974  0.5225 -0.4600
   34TAL   C16813121   6.316   6.640  -0.330  0.5831  0.2659 -0.3081
   34TAL   C16913122   6.312   6.621  -0.180 -0.3269 -0.3138 -0.0454
   34TAL   C17013123   6.418   6.705  -0.110 -0.0427 -0.3711 -0.3796
   35HTM   C17113124   6.824   6.607  -0.649  0.2331 -0.2469  0.5040
   35HTM   C17213125   6.961   6.601  -0.651  0.2484  0.0639  0.4640
   35HTM   C17313126   7.025   6.729  -0.657 -0.0451  0.2148  0.5565
   35HTM   C17413127   6.938   6.834  -0.659 -0.2839  0.0193  0.6666
   35HTM    S1813128   6.766   6.778  -0.654 -0.1558 -0.3738  0.6618
   36TAL   C17513129   7.176   6.731  -0.654  0.0856  0.6636 -0.0716
   36TAL   C17613130   7.229   6.713  -0.514 -0.2525  0.9111 -0.0871
   36TAL   C17713131   7.377   6.688  -0.499 -0.0789  0.0238  0.4342
   36TAL   C17813132   7.435   6.666  -0.361 -0.2594  0.3087  0.4063
   36TAL   C17913133   7.577   6.624  -0.344 -0.2825  0.4105 -0.1622
   36TAL   C18013134   7.624   6.621  -0.200 -0.2203 -0.2812 -0.0635
   37HTM   C18113135   6.957   6.976  -0.679 -0.0103  0.3504 -0.0122
   37HTM   C18213136   6.855   7.067  -0.683  0.0787  0.4539  0.0830
   37HTM   C18313137   6.900   7.203  -0.694  0.2167  0.4327  0.3695
   37HTM   C18413138   7.035   7.217  -0.699  0.2329  0.3130  0.4926
   37HTM    S1913139   7.118   7.057  -0.690  0.0740  0.2170  0.2544
   38TAL   C18513140   6.808   7.321  -0.692 -0.2213  0.5162 -0.2214
   38TAL   C18613141   6.743   7.352  -0.561  0.4301  0.3779 -0.2811
   38TAL   C18713142   6.680   7.489  -0.538 -0.4976  0.1484 -0.0582
   38TAL   C18813143   6.578   7.545  -0.632 -0.2610  0.2279  0.5924
   38TAL   C18913144   6.569   7.692  -0.610  0.5328 -0.0530 -0.2552
   38TAL   C19013145   6.474   7.755  -0.710 -0.2336 -0.0492  0.7277
   39HTM   C19113146   7.122   7.336  -0.710  0.3066  0.2177  0.4939
   39HTM   C19213147   7.256   7.323  -0.737  0.3922  0.3922  0.8268
   39HTM   C19313148   7.321   7.447  -0.771  0.1724  0.3791  0.3471
   39HTM   C19413149   7.237   7.555  -0.770 -0.0810  0.1943 -0.3524
   39HTM    S2013150   7.069   7.508  -0.726 -0.0607  0.0216 -0.4596
   40TAL   C19513151   7.469   7.444  -0.812  0.1691  0.2626  0.2431
   40TAL   C19613152   7.566   7.383  -0.710  0.2245 -0.2260  0.2737
   40TAL   C19713153   7.595   7.448  -0.574 -0.2513 -0.0233  0.3562
   40TAL   C19813154   7.663   7.587  -0.583 -0.0113  0.2303  0.1543
   40TAL   C19913155   7.673   7.655  -0.447 -0.4355 -0.0659  0.3131
   40TAL   C20013156   7.779   7.768  -0.464 -0.3955  0.3572  0.3540
   41HTM   C20113157   7.261   7.695  -0.796  0.2173 -0.1456  0.2136
   41HTM   C20213158   7.375   7.762  -0.763  0.1068  0.0184  0.2680
   41HTM   C20313159   7.361   7.905  -0.765 -0.0949 -0.0017  0.2532
   41HTM   C20413160   7.236   7.948  -0.800 -0.1382 -0.1801  0.1879
   41HTM    S2113161   7.126   7.809  -0.832  0.0746 -0.3387  0.1393
   42TAL   C20513162   7.487   7.989  -0.752  0.1060 -0.2127  0.3439
   42TAL   C20613163   7.530   8.033  -0.616 -0.0551  0.1283  0.4229
   42TAL   C20713164   7.667   8.109  -0.629 -0.0750  0.3428  0.3060
   42TAL   C20813165   7.719   8.161  -0.492  0.2575 -0.1670  0.5082
   42TAL   C20913166   7.843   8.259  -0.510 -0.0168  0.4321 -0.0645
   42TAL   C21013167   7.914   8.262  -0.379 -0.0890 -0.7961 -0.3933
   43HTM   C21113168   7.182   8.081  -0.821  0.2557 -0.2835  0.3022
   43HTM   C21213169   7.068   8.108  -0.889  0.4690 -0.4506 -0.1240
   43HTM   C21313170   7.026   8.245  -0.881  0.5016 -0.4025 -0.6843
   43HTM   C21413171   7.109   8.323  -0.805  0.3131 -0.1988 -0.6850
   43HTM    S2213172   7.247   8.228  -0.739  0.0777 -0.0510  0.0271
   44TAL   C21513173   6.900   8.305  -0.934 -0.1217  0.4037 -0.2865
   44TAL   C21613174   6.883   8.337  -1.083  0.3581 -0.4417 -0.0789
   44TAL   C21713175   6.792   8.448  -1.123  0.7272 -0.4346  0.6054
   44TAL   C21813176   6.803   8.588  -1.050  0.4525  0.2111  0.1585
   44TAL   C21913177   6.709   8.693  -1.093  0.5319  0.1717 -0.1206
   44TAL   C22013178   6.740   8.824  -1.027 -0.9788 -0.5245  0.1373
   45HTM   C22113179   7.104   8.460  -0.750 -0.4154 -0.1583 -0.4763
   45HTM   C22213180   7.075   8.502  -0.623  0.5581 -0.5131 -0.1302
   45HTM   C22313181   7.072   8.645  -0.608  1.2789 -0.5484  0.4482
   45HTM   C22413182   7.097   8.712  -0.724  0.8554 -0.2198  0.5442
   45HTM    S2313183   7.128   8.599  -0.861 -0.4973  0.1633 -0.0952
   46TAL   C22513184   7.037   8.707  -0.472 -0.0516 -0.4414  0.0147
   46TAL   C22613185   7.148   8.700  -0.364  0.5051 -0.3682 -0.0172
   46TAL   C22713186   7.271   8.784  -0.391  0.2214  0.5187 -0.1897
   46TAL   C22813187   7.358   8.787  -0.266  0.4729  0.2556  0.0017
   46TAL   C22913188   7.491   8.852  -0.291 -0.9626  0.0918  0.2751
   46TAL   C23013189   7.531   8.956  -0.186  0.4485  0.5864 -0.3273
   47HTM   C23113190   7.085   8.856  -0.765 -0.4024  0.1565  0.3014
   47HTM   C23213191   7.071   8.966  -0.686 -0.3958  0.3638  0.0157
   47HTM   C23313192   7.063   9.090  -0.759 -0.2792  0.1836 -0.2990
   47HTM   C23413193   7.072   9.074  -0.895 -0.1967 -0.1604 -0.2541
   47HTM    S2413194   7.091   8.900  -0.940 -0.2604 -0.2845  0.1934
   48TAL   C23513195   7.053   9.231  -0.703  0.0678 -0.2913 -0.3512
   48TAL   C23613196   7.113   9.274  -0.564 -0.2045  0.1157 -0.0261
   48TAL   C23713197   7.248   9.211  -0.519 -0.5020  0.3650 -0.0915
   48TAL   C23813198   7.373   9.237  -0.610 -0.7184 -0.1895 -0.1770
   48TAL   C23913199   7.479   9.144  -0.575 -0.8169 -0.1458  0.2861
   48TAL   C24013200   7.614   9.190  -0.632 -0.7188  0.3787  0.4204
    1HTM     C113201   5.248   7.744   0.917 -0.3051 -0.7743 -0.2073
    1HTM     C213202   5.296   7.648   1.001 -0.5727 -0.9108 -0.2116
    1HTM     C313203   5.211   7.623   1.115 -0.4141 -0.3562  0.0283
    1HTM     C413204   5.099   7.701   1.118 -0.0258  0.2037  0.2155
    1HTM     S113205   5.092   7.812   0.976  0.1716  0.0724  0.1025
    2TAL     C513206   5.247   7.523   1.221 -0.3280  0.2791  0.0490
    2TAL     C613207   5.340   7.570   1.333  0.1809 -0.0134  0.1953
    2TAL     C713208   5.473   7.502   1.320  0.4541  0.2190  0.1397
    2TAL     C813209   5.551   7.548   1.438 -0.1751 -0.0871  0.1000
    2TAL     C913210   5.699   7.502   1.438  0.3659  0.4584 -0.5653
    2TAL    C1013211   5.788   7.589   1.520 -0.0218 -0.6228  0.0045
    3HTM    C1113212   4.997   7.721   1.215 -0.1213 -0.0501 -0.0665
    3HTM    C1213213   5.021   7.752   1.345 -0.1454  0.4332 -0.1761
    3HTM    C1313214   4.902   7.777   1.421 -0.1678  0.5686 -0.2562
    3HTM    C1413215   4.787   7.766   1.349 -0.1603  0.1880 -0.2076
    3HTM     S213216   4.821   7.721   1.178 -0.1247 -0.3747 -0.0557
    4TAL    C1513217   4.910   7.836   1.566  0.1639  0.1525  0.1901
    4TAL    C1613218   5.052   7.832   1.645 -0.7132 -0.1019  0.0435
    4TAL    C1713219   5.124   7.693   1.674  0.1000  0.0313  0.7304
    4TAL    C1813220   5.021   7.606   1.738  0.4484 -0.5310  0.0685
    4TAL    C1913221   5.050   7.465   1.785  0.0393 -0.3450  0.2979
    4TAL    C2013222   5.112   7.468   1.925  0.2364  0.1712 -0.0297
    5HTM    C2113223   4.649   7.758   1.394  0.0283  0.2601 -0.3264
    5HTM    C2213224   4.581   7.846   1.472  0.0854  0.2797 -0.2987
    5HTM    C2313225   4.444   7.809   1.496  0.0813  0.3240 -0.2515
    5HTM    C2413226   4.408   7.691   1.436  0.0215  0.3384 -0.2433
    5HTM     S313227   4.545   7.619   1.344 -0.0350  0.2964 -0.2948
    6TAL    C2513228   4.352   7.883   1.597  0.3134  0.7807  0.8797
    6TAL    C2613229   4.394   7.897   1.738  0.7163  0.1313  0.3086
    6TAL    C2713230   4.424   7.769   1.822  0.4030 -0.0477  0.2751
    6TAL    C2813231   4.286   7.708   1.867  0.0241  0.2707 -0.1127
    6TAL    C2913232   4.313   7.581   1.951  0.2083  0.1143  0.0648
    6TAL    C3013233   4.179   7.542   2.006  0.0683  0.0741 -0.1115
    7HTM    C3113234   4.289   7.606   1.454 -0.4774  0.4098  0.0626
    7HTM    C3213235   4.286   7.476   1.497 -0.0730  0.2558 -0.3681
    7HTM    C3313236   4.153   7.425   1.516  0.0849 -0.2625 -0.6480
    7HTM    C3413237   4.054   7.515   1.489 -0.1991 -0.5035 -0.4308
    7HTM     S413238   4.122   7.673   1.435 -0.6918 -0.0915  0.1486
    8TAL    C3513239   4.138   7.281   1.573 -0.3676  0.4240 -0.7417
    8TAL    C3613240   4.127   7.268   1.728 -0.5432  0.4231  0.5671
    8TAL    C3713241   4.088   7.133   1.792 -0.1264  0.2710 -0.5203
    8TAL    C3813242   4.159   7.003   1.753  0.3791 -0.2284 -0.5274
    8TAL    C3913243   4.313   6.984   1.776 -0.2658  0.2734 -0.0947
    8TAL    C4013244   4.352   6.852   1.711  0.2741 -0.1457 -0.7373
    9HTM    C4113245   3.909   7.498   1.497  0.4326 -0.3705  0.1657
    9HTM    C4213246   3.814   7.595   1.501  0.8365  0.0076  0.6601
    9HTM    C4313247   3.681   7.545   1.523  0.6552  0.4694  0.6214
    9HTM    C4413248   3.674   7.410   1.535  0.1128  0.4437  0.0975
    9HTM     S513249   3.837   7.334   1.520 -0.2134 -0.1711 -0.3914
   10TAL    C4513250   3.561   7.633   1.546 -0.2600  0.0103  0.1198
   10TAL    C4613251   3.567   7.785   1.536  0.1284  0.0921 -1.2697
   10TAL    C4713252   3.618   7.850   1.408 -0.0333  0.1691  0.2548
   10TAL    C4813253   3.567   7.986   1.365  0.6800  0.2621  0.2646
   10TAL    C4913254   3.642   8.059   1.257  0.1302  0.6675  0.1944
   10TAL    C5013255   3.584   8.194   1.213  0.0861 -0.2126  0.3062
   11HTM    C5113256   3.571   7.311   1.566  0.1218 -0.3566 -0.3153
   11HTM    C5213257   3.453   7.295   1.500  0.0399 -0.4070 -0.1577
   11HTM    C5313258   3.381   7.177   1.537 -0.0809 -0.1988  0.2756
   11HTM    C5413259   3.444   7.102   1.632 -0.0910  0.0099  0.4482
   11HTM     S613260   3.601   7.176   1.682  0.0523 -0.0403  0.0742
   12TAL    C5513261   3.244   7.148   1.490 -0.3783 -0.0081 -0.0682
   12TAL    C5613262   3.131   7.242   1.541  0.3691  0.2940  0.3584
   12TAL    C5713263   2.984   7.185   1.515  0.0362 -0.6056  0.0293
   12TAL    C5813264   2.952   7.049   1.567  0.2203 -0.7601 -0.0009
   12TAL    C5913265   2.808   7.013   1.537  0.6246  1.0409 -0.6929
   12TAL    C6013266   2.772   6.875   1.594 -0.2827  0.3795 -0.3678
   13HTM    C6113267   3.411   6.974   1.698 -0.3837 -0.0133  0.4198
   13HTM    C6213268   3.292   6.929   1.745 -0.3080 -0.0765  0.5503
   13HTM    C6313269   3.302   6.809   1.824 -0.1810 -0.1776  0.3799
   13HTM    C6413270   3.430   6.763   1.837 -0.1600 -0.1909  0.1196
   13HTM     S713271   3.548   6.868   1.749 -0.2998 -0.0759  0.0689
   14TAL    C6513272   3.180   6.743   1.886 -0.1694 -0.2176 -0.1235
   14TAL    C6613273   3.049   6.829   1.914 -0.3903  0.4870  1.0600
   14TAL    C6713274   3.056   6.962   1.998 -0.2947  0.0258  0.1286
   14TAL    C6813275   2.925   7.011   2.056 -0.7170 -0.4016  0.3194
   14TAL    C6913276   2.937   7.136   2.135  0.1279  0.4745 -0.4528
   14TAL    C7013277   2.807   7.144   2.212 -0.3253  0.1630 -0.2868
   15HTM    C7113278   3.479   6.645   1.902  0.0618 -0.0176 -0.3326
   15HTM    C7213279   3.505   6.527   1.838  0.2744  0.0873 -0.4392
   15HTM    C7313280   3.584   6.435   1.916  0.0033 -0.0463 -0.3241
   15HTM    C7413281   3.617   6.482   2.040 -0.4161 -0.2525 -0.1297
   15HTM     S813282   3.551   6.648   2.067 -0.5017 -0.2952 -0.0766
   16TAL    C7513283   3.611   6.292   1.870  0.0428  0.7096  0.4978
   16TAL    C7613284   3.511   6.209   1.786 -0.9837 -0.1125 -0.1093
   16TAL    C7713285   3.576   6.069   1.778  0.3153 -0.5933  0.3025
   16TAL    C7813286   3.482   5.959   1.750 -0.3618 -0.0686  0.0553
   16TAL    C7913287   3.546   5.819   1.786 -0.1668 -0.8953  0.0709
   16TAL    C8013288   3.468   5.710   1.716  0.7705 -0.0475 -0.5612
   17HTM    C8113289   3.678   6.413   2.149  0.1921  0.0418 -0.2235
   17HTM    C8213290   3.632   6.416   2.278  0.3170  0.5276 -0.1861
   17HTM    C8313291   3.719   6.349   2.371  0.2844  0.6621 -0.0601
   17HTM    C8413292   3.831   6.297   2.314  0.1348  0.2787 -0.0013
   17HTM     S913293   3.835   6.327   2.136  0.0227 -0.2858 -0.1014
   18TAL    C8513294   3.704   6.360   2.520 -0.4390  0.5828 -0.2128
   18TAL    C8613295   3.593   6.429   2.591  0.4217  0.6798  0.3407
   18TAL    C8713296   3.551   6.567   2.551  0.2050 -0.4513 -0.6894
   18TAL    C8813297   3.665   6.670   2.551 -0.3474 -0.1461 -0.4265
   18TAL    C8913298   3.611   6.807   2.500 -0.1873 -0.1252  0.4035
   18TAL    C9013299   3.728   6.898   2.466  0.5839 -0.5601 -0.4730
   19HTM    C9113300   3.951   6.232   2.368 -0.1938 -0.2465 -0.0872
   19HTM    C9213301   4.076   6.283   2.351 -0.2446 -0.2656 -0.5392
   19HTM    C9313302   4.179   6.208   2.418 -0.0541 -0.1078 -0.6549
   19HTM    C9413303   4.133   6.098   2.485  0.1421  0.0309 -0.2910
   19HTM    S1013304   3.954   6.083   2.470  0.1012 -0.0264  0.2301
   20TAL    C9513305   4.325   6.245   2.420  0.8008 -0.6015 -0.4772
   20TAL    C9613306   4.366   6.394   2.412  0.0583 -0.6968  0.6190
   20TAL    C9713307   4.518   6.418   2.429  0.7759 -0.5005 -0.4282
   20TAL    C9813308   4.552   6.568   2.441 -0.4056  0.4888  0.3565
   20TAL    C9913309   4.695   6.597   2.483 -0.5369  0.0795 -0.4322
   20TAL   C10013310   4.732   6.735   2.547  0.6931  0.4145 -0.0456
   21HTM   C10113311   4.199   6.000   2.564  0.0135 -0.0149  0.1699
   21HTM   C10213312   4.315   6.005   2.636 -0.1559  0.1473  0.4319
   21HTM   C10313313   4.342   5.886   2.711 -0.2253  0.2365  0.5999
   21HTM   C10413314   4.247   5.789   2.696 -0.1083  0.1420  0.4658
   21HTM    S1113315   4.115   5.842   2.585  0.0999 -0.0684  0.1145
   22TAL   C10513316   4.475   5.881   2.799  0.1192 -0.3968  0.3642
   22TAL   C10613317   4.494   5.978   2.913 -0.3958 -0.7473 -0.5419
   22TAL   C10713318   4.392   5.987   3.034 -0.1946  0.2344  0.3959
   22TAL   C10813319   4.449   6.052   3.157 -0.5572  0.2432 -0.8035
   22TAL   C10913320   4.365   5.990   3.267  0.0314  0.4029  0.0824
   22TAL   C11013321   4.420   6.019   3.401 -0.4682 -0.1402 -0.0077
   23HTM   C11113322   4.251   5.649   2.743 -0.0171  0.0504 -0.7719
   23HTM   C11213323   4.144   5.575   2.784 -0.1345 -0.0908 -1.3272
   23HTM   C11313324   4.179   5.443   2.829 -0.1895 -0.0267 -1.0986
   23HTM   C11413325   4.313   5.416   2.823 -0.1134  0.1632 -0.3690
   23HTM    S1213326   4.406   5.557   2.759  0.0339  0.2769  0.0896
   24TAL   C11513327   4.066   5.349   2.883 -0.8996 -0.0121 -0.3413
   24TAL   C11613328   4.043   5.224   2.795 -0.5177 -0.0535 -0.4369
   24TAL   C11713329   3.951   5.118   2.856 -0.1303  0.2979  0.3425
   24TAL   C11813330   3.944   4.981   2.786  0.6070 -0.3776  0.0703
   24TAL   C11913331   3.865   4.886   2.864 -0.1988  0.4156  0.2399
   24TAL   C12013332   3.847   4.755   2.782 -0.3035 -0.0585  0.3821
   25HTM   C12113333   4.391   5.295   2.860 -0.0795 -0.0636 -0.4082
   25HTM   C12213334   4.350   5.191   2.938 -0.2234 -0.2608 -0.7466
   25HTM   C12313335   4.440   5.079   2.936 -0.1495 -0.2017 -0.7514
   25HTM   C12413336   4.550   5.097   2.858  0.0507  0.0411 -0.4164
   25HTM    S1313337   4.548   5.260   2.779  0.1624  0.2146 -0.0661
   26TAL   C12513338   4.410   4.951   3.022  0.7374 -1.0236  0.2477
   26TAL   C12613339   4.258   4.926   3.041 -0.2387  0.6602 -0.2331
   26TAL   C12713340   4.224   4.784   3.100  0.6966 -0.7128 -0.2070
   26TAL   C12813341   4.076   4.755   3.110 -0.6388  0.3673  0.3829
   26TAL   C12913342   4.022   4.616   3.141  0.1628 -0.5348  0.5966
   26TAL   C13013343   3.872   4.628   3.158  1.5614 -0.5656  0.0632
   27HTM   C13113344   4.666   5.012   2.834 -0.0230 -0.3044  0.6259
   27HTM   C13213345   4.790   5.029   2.888  0.1221 -0.2491  0.2832
   27HTM   C13313346   4.882   4.923   2.855  0.1621 -0.0618 -0.2053
   27HTM   C13413347   4.829   4.827   2.775  0.0476  0.0257 -0.2351
   27HTM    S1413348   4.656   4.861   2.735 -0.1211 -0.1228  0.3562
   28TAL   C13513349   5.025   4.949   2.913  0.1979 -0.9039  0.4674
   28TAL   C13613350   5.119   4.849   2.957 -0.2410  0.3196  0.2910
   28TAL   C13713351   5.072   4.728   3.035  0.5486  0.1303 -0.1773
   28TAL   C13813352   5.180   4.626   3.044  0.1032  0.4741  0.2265
   28TAL   C13913353   5.157   4.503   3.131 -0.2546  0.3867  0.0734
   28TAL   C14013354   5.144   4.517   3.282  0.6035 -0.2528 -0.1873
   29HTM   C14113355   4.884   4.705   2.724 -0.4555 -0.1651  0.0519
   29HTM   C14213356   5.002   4.691   2.657 -0.0610  0.1578  0.6603
   29HTM   C14313357   5.042   4.554   2.639  0.5434  0.2744  1.0871
   29HTM   C14413358   4.955   4.464   2.692  0.6095  0.0404  0.8041
   29HTM    S1513359   4.815   4.545   2.771 -0.0917 -0.3485 -0.0300
   30TAL   C14513360   5.169   4.512   2.564 -0.1514 -0.0198  0.3125
   30TAL   C14613361   5.304   4.510   2.634 -0.6856 -0.2716  0.1819
   30TAL   C14713362   5.350   4.640   2.699 -0.1288 -0.4603  0.9007
   30TAL   C14813363   5.380   4.742   2.589 -0.2441 -0.2511  0.6116
   30TAL   C14913364   5.425   4.883   2.637 -0.0524  0.1143  0.1229
   30TAL   C15013365   5.562   4.873   2.702  0.1309 -0.5597  0.0818
   31HTM   C15113366   4.945   4.320   2.677 -0.0531 -0.0412 -0.2875
   31HTM   C15213367   5.004   4.246   2.578 -0.4575  0.0529 -0.6016
   31HTM   C15313368   4.989   4.104   2.596 -0.3521  0.0350 -0.6580
   31HTM   C15413369   4.919   4.069   2.708  0.1325 -0.0731 -0.3868
   31HTM    S1613370   4.866   4.215   2.800  0.4963 -0.1611 -0.0366
   32TAL   C15513371   5.059   4.004   2.501  0.8552 -0.0428  0.6934
   32TAL   C15613372   5.198   4.040   2.446 -0.2566 -0.5663 -0.2046
   32TAL   C15713373   5.272   3.928   2.373  0.7791  0.3305 -0.6342
   32TAL   C15813374   5.202   3.885   2.244 -0.2200 -0.5400 -1.0093
   32TAL   C15913375   5.222   3.974   2.119  0.3895 -0.5008  0.0393
   32TAL   C16013376   5.150   3.915   2.003  0.3824  0.1132  0.1444
   33HTM   C16113377   4.885   3.943   2.773 -0.2916 -0.0356  0.0063
   33HTM   C16213378   4.862   3.932   2.907 -0.7629 -0.0192 -0.0696
   33HTM   C16313379   4.865   3.797   2.956 -0.8328 -0.0046 -0.0252
   33HTM   C16413380   4.890   3.704   2.859 -0.4142 -0.0102  0.0847
   33HTM    S1713381   4.912   3.781   2.698  0.1044 -0.0342  0.1410
   34TAL   C16513382   4.866   3.761   3.108 -0.2552  0.4440  0.0219
   34TAL   C16613383   4.981   3.810   3.189  0.4506 -0.5505  0.2036
   34TAL   C16713384   4.985   3.761   3.338 -0.4458 -0.1374  0.3956
   34TAL   C16813385   5.126   3.798   3.394  0.3483  0.2170  0.3429
   34TAL   C16913386   5.187   3.715   3.505  0.0721 -0.1038 -0.3041
   34TAL   C17013387   5.205   3.572   3.480 -0.0763  0.8127  0.0179
   35HTM   C17113388   4.903   3.558   2.869 -0.0524  0.0368  0.0742
   35HTM   C17213389   4.986   3.485   2.789  0.4160  0.0418  0.5562
   35HTM   C17313390   4.989   3.345   2.822  0.4489  0.0892  0.7547
   35HTM   C17413391   4.908   3.312   2.927  0.0055  0.1203  0.4243
   35HTM    S1813392   4.821   3.455   2.992 -0.4922  0.0918 -0.1681
   36TAL   C17513393   5.069   3.247   2.744  0.2653 -1.2786 -0.2567
   36TAL   C17613394   5.174   3.301   2.644  0.0733  0.3046  0.0788
   36TAL   C17713395   5.250   3.207   2.561  0.0767  0.3081 -0.1824
   36TAL   C17813396   5.372   3.265   2.500  0.6457 -0.3705 -0.4978
   36TAL   C17913397   5.481   3.165   2.465 -0.6563  0.2075  0.0225
   36TAL   C18013398   5.600   3.230   2.386  0.4696 -0.0727  0.3947
   37HTM   C18113399   4.864   3.188   2.985  0.3776  0.2310 -0.0588
   37HTM   C18213400   4.743   3.170   3.045  0.4661  0.8931  0.3351
   37HTM   C18313401   4.725   3.038   3.100  0.0908  1.1274  0.7783
   37HTM   C18413402   4.833   2.956   3.082 -0.2838  0.6439  0.7225
   37HTM    S1913403   4.966   3.039   2.994 -0.1908 -0.1508  0.1006
   38TAL   C18513404   4.592   3.001   3.156  0.2179  0.5202  0.6171
   38TAL   C18613405   4.558   3.068   3.290  0.2575 -0.1537 -0.1983
   38TAL   C18713406   4.424   3.026   3.343 -0.0709 -0.2077 -0.0667
   38TAL   C18813407   4.388   3.113   3.466  0.0635  0.1666  0.3907
   38TAL   C18913408   4.265   3.077   3.540  0.0365  0.5797  0.0124
   38TAL   C19013409   4.237   3.188   3.639 -0.6802 -0.2986 -0.3027
   39HTM   C19113410   4.855   2.819   3.142 -0.0923 -0.4321 -0.0262
   39HTM   C19213411   4.774   2.729   3.204 -0.0331 -0.4623  0.0073
   39HTM   C19313412   4.843   2.612   3.252  0.0606 -0.3494  0.1469
   39HTM   C19413413   4.977   2.613   3.227  0.0724 -0.2333  0.2200
   39HTM    S2013414   5.026   2.763   3.140 -0.0336 -0.2574  0.1173
   40TAL   C19513415   4.764   2.498   3.311  0.0992  0.5003 -0.3050
   40TAL   C19613416   4.724   2.386   3.207  0.3009 -0.2715 -0.3929
   40TAL   C19713417   4.615   2.290   3.243  0.5626 -0.3679 -0.1237
   40TAL   C19813418   4.575   2.203   3.122  0.3163 -0.2166  0.0328
   40TAL   C19913419   4.669   2.092   3.093 -0.3808  0.2076  0.1964
   40TAL   C20013420   4.612   1.989   2.995 -0.6385  1.0003  0.3890
   41HTM   C20113421   5.084   2.534   3.283  0.6034  0.2074  0.1074
   41HTM   C20213422   5.216   2.564   3.275  0.5884  0.3819  0.4859
   41HTM   C20313423   5.300   2.479   3.355  0.4773  0.4687  0.6967
   41HTM   C20413424   5.231   2.383   3.424  0.4082  0.3604  0.4787
   41HTM    S2113425   5.054   2.394   3.393  0.4780  0.1387 -0.0134
   42TAL   C20513426   5.449   2.506   3.364  0.1137 -0.0884  0.1497
   42TAL   C20613427   5.507   2.544   3.230 -0.5285  0.3541  0.1931
   42TAL   C20713428   5.662   2.550   3.217 -0.0485 -0.2310  0.1444
   42TAL   C20813429   5.757   2.429   3.238  0.3195 -0.6207 -0.5036
   42TAL   C20913430   5.720   2.285   3.206  0.2020 -0.1650  0.6400
   42TAL   C21013431   5.848   2.208   3.233  0.3776 -0.1650 -0.2522
   43HTM   C21113432   5.274   2.271   3.505 -0.3595 -0.2482  0.2700
   43HTM   C21213433   5.195   2.195   3.586 -0.2353 -0.2109  0.4268
   43HTM   C21313434   5.259   2.075   3.633 -0.0904 -0.0851  0.5534
   43HTM   C21413435   5.387   2.060   3.587 -0.1047 -0.0266  0.4933
   43HTM    S2213436   5.437   2.197   3.481 -0.3031 -0.1263  0.2704
   44TAL   C21513437   5.191   1.970   3.725  0.8357  0.3747  0.5648
   44TAL   C21613438   5.053   1.910   3.687  0.5258  0.1343 -0.8534
   44TAL   C21713439   4.993   1.815   3.791  0.4882  0.2828  0.0086
   44TAL   C21813440   5.066   1.681   3.825  0.5966 -0.6885 -1.1337
   44TAL   C21913441   5.185   1.692   3.917  0.2144 -0.0430  0.4676
   44TAL   C22013442   5.277   1.570   3.905 -0.0558  0.2843  0.0307
   45HTM   C22113443   5.483   1.953   3.603 -0.3145  0.3208 -0.2740
   45HTM   C22213444   5.616   1.972   3.626 -0.3462  0.4503 -0.1925
   45HTM   C22313445   5.689   1.849   3.643 -0.3386  0.5363  0.4305
   45HTM   C22413446   5.612   1.737   3.632 -0.3010  0.4723  0.8243
   45HTM    S2313447   5.439   1.778   3.600 -0.2724  0.2972  0.4356
   46TAL   C22513448   5.838   1.845   3.681 -0.4651  0.1179  0.2336
   46TAL   C22613449   5.930   1.867   3.560  0.8221 -0.0164 -0.1511
   46TAL   C22713450   5.955   2.006   3.519 -0.2223  0.0754  0.2095
   46TAL   C22813451   6.066   2.073   3.594  0.0011 -0.5577  0.1456
   46TAL   C22913452   6.068   2.222   3.569 -0.3601  0.6511  0.1054
   46TAL   C23013453   6.198   2.289   3.613 -0.7048 -0.2133 -0.1026
   47HTM   C23113454   5.644   1.593   3.652  0.0890  0.0680  0.1150
   47HTM   C23213455   5.664   1.496   3.558 -0.4325  0.0727 -0.0006
   47HTM   C23313456   5.689   1.366   3.614 -0.6976 -0.0437 -0.1522
   47HTM   C23413457   5.688   1.364   3.751 -0.3787 -0.1371 -0.1521
   47HTM    S2413458   5.656   1.527   3.820  0.2865 -0.0850  0.0410
   48TAL   C23513459   5.703   1.238   3.531 -0.2264 -0.3411 -0.3525
   48TAL   C23613460   5.852   1.231   3.488  0.7970 -0.0751  0.0451
   48TAL   C23713461   5.883   1.101   3.419  0.1987  0.1860  0.5310
   48TAL   C23813462   6.031   1.095   3.398  0.3771  0.2069 -0.5840
   48TAL   C23913463   6.075   0.956   3.361 -0.3919  0.2109 -0.0589
   48TAL   C24013464   6.225   0.931   3.396 -0.4927 -0.7010 -0.4934
    1HTM     C113465   7.789   7.562   4.639 -0.0595  0.0489  0.0271
    1HTM     C213466   7.918   7.546   4.597 -0.1533  0.0758 -0.2754
    1HTM     C313467   7.970   7.414   4.620  0.0198  0.1674 -0.1423
    1HTM     C413468   7.882   7.329   4.679  0.2456  0.2100  0.2616
    1HTM     S113469   7.723   7.410   4.711  0.2575  0.1376  0.5072
    2TAL     C513470   8.111   7.366   4.577 -0.5705 -0.7100  0.0187
    2TAL     C613471   8.221   7.465   4.598  0.2386 -0.1541  0.8006
    2TAL     C713472   8.356   7.412   4.555  0.2378 -0.4564 -0.3124
    2TAL     C813473   8.467   7.503   4.602  0.3706  0.6784  0.2716
    2TAL     C913474   8.601   7.458   4.545 -0.1421 -0.2746  0.0769
    2TAL    C1013475   8.727   7.537   4.590  0.2343 -0.5640  0.4584
    3HTM    C1113476   7.884   7.191   4.711 -0.0640 -0.2726  0.6560
    3HTM    C1213477   7.989   7.117   4.758 -0.0846 -0.2725  0.7026
    3HTM    C1313478   7.958   6.978   4.777  0.0274 -0.3564  0.2818
    3HTM    C1413479   7.829   6.946   4.745  0.1329 -0.4207 -0.0853
    3HTM     S213480   7.737   7.090   4.688  0.0995 -0.3796  0.0725
    4TAL    C1513481   8.066   6.880   4.816  0.0148  0.2244  0.8775
    4TAL    C1613482   8.214   6.925   4.820  0.2421  0.7585  0.0971
    4TAL    C1713483   8.318   6.824   4.882  0.3816  0.8462 -0.5799
    4TAL    C1813484   8.277   6.801   5.032  0.3122 -0.9362 -0.3741
    4TAL    C1913485   8.352   6.686   5.095  0.3110  0.6923  0.3149
    4TAL    C2013486   8.314   6.668   5.237  0.7489  0.0505  0.9328
    5HTM    C2113487   7.758   6.817   4.765  0.4250  0.2531 -0.3832
    5HTM    C2213488   7.625   6.802   4.789  0.4473  0.8759  0.1705
    5HTM    C2313489   7.587   6.668   4.824  0.0122  1.1249  0.6680
    5HTM    C2413490   7.691   6.580   4.827 -0.3420  0.6917  0.4936
    5HTM     S313491   7.847   6.661   4.786 -0.1518 -0.0698 -0.3189
    6TAL    C2513492   7.443   6.631   4.852  0.3672  0.0381  0.3676
    6TAL    C2613493   7.378   6.697   4.969  0.5035  0.1010 -0.0751
    6TAL    C2713494   7.448   6.711   5.105 -0.2421 -0.2403 -0.0758
    6TAL    C2813495   7.348   6.790   5.194 -0.3675  0.0267 -0.6078
    6TAL    C2913496   7.399   6.843   5.325  0.5649 -0.1175 -0.2193
    6TAL    C3013497   7.297   6.907   5.425  0.1405 -0.4622  0.4561
    7HTM    C3113498   7.693   6.437   4.851 -0.1165 -0.2104 -0.4291
    7HTM    C3213499   7.597   6.347   4.886 -0.1731 -0.3269 -0.8714
    7HTM    C3313500   7.646   6.212   4.900 -0.0985 -0.2887 -0.7653
    7HTM    C3413501   7.780   6.200   4.875  0.0152 -0.1436 -0.2426
    7HTM     S413502   7.854   6.358   4.832  0.0368 -0.0427  0.1595
    8TAL    C3513503   7.542   6.113   4.947 -0.0946 -0.1790  0.2243
    8TAL    C3613504   7.501   5.997   4.851 -0.2968  0.5773 -0.3467
    8TAL    C3713505   7.388   5.896   4.875 -0.2248  0.1595 -0.4490
    8TAL    C3813506   7.248   5.947   4.849  0.1277 -0.0850 -0.0122
    8TAL    C3913507   7.220   5.996   4.702 -0.2043  0.3106 -0.7166
    8TAL    C4013508   7.087   6.055   4.677 -0.8893 -0.4684 -0.2968
    9HTM    C4113509   7.864   6.079   4.882 -0.0236  0.0857  0.3087
    9HTM    C4213510   7.836   5.947   4.902 -0.0234  0.1085  0.4640
    9HTM    C4313511   7.953   5.865   4.920  0.0052  0.0381 -0.0193
    9HTM    C4413512   8.070   5.934   4.914  0.0266 -0.0388 -0.5434
    9HTM     S513513   8.042   6.109   4.885  0.0125 -0.0279 -0.4660
   10TAL    C4513514   7.939   5.724   4.955 -0.1720  0.1385 -0.9260
   10TAL    C4613515   7.810   5.639   4.939 -0.6083  0.4611  0.3258
   10TAL    C4713516   7.769   5.628   4.789 -0.3195  0.1679  0.7536
   10TAL    C4813517   7.645   5.546   4.771 -0.2713  0.6403  0.8264
   10TAL    C4913518   7.607   5.538   4.630 -0.7828  0.4022  0.4183
   10TAL    C5013519   7.483   5.462   4.612 -0.3022  0.0146  0.1659
   11HTM    C5113520   8.214   5.891   4.926  0.2017  0.0197  0.5541
   11HTM    C5213521   8.268   5.779   4.984  0.3343 -0.0980  0.2086
   11HTM    C5313522   8.409   5.764   4.961  0.2446 -0.1633 -0.3176
   11HTM    C5413523   8.463   5.864   4.886  0.0438 -0.0947 -0.3728
   11HTM     S613524   8.339   5.986   4.837 -0.0483  0.0579  0.2395
   12TAL    C5513525   8.473   5.654   5.025  0.0566  0.2564 -0.9237
   12TAL    C5613526   8.496   5.643   5.177 -1.0134 -0.8976 -0.2903
   12TAL    C5713527   8.590   5.533   5.223 -0.2902 -0.5316  0.4099
   12TAL    C5813528   8.728   5.524   5.161  0.3372 -0.4973  0.0724
   12TAL    C5913529   8.812   5.651   5.183 -0.0176  0.6070 -0.3464
   12TAL    C6013530   8.945   5.635   5.122 -0.0341 -0.4577 -0.5603
   13HTM    C6113531   8.595   5.885   4.833  0.1832  0.2153 -0.1714
   13HTM    C6213532   8.657   5.993   4.778  0.2007  0.0236 -0.5350
   13HTM    C6313533   8.789   5.965   4.726  0.0997 -0.2236 -0.6557
   13HTM    C6413534   8.826   5.835   4.741  0.0041 -0.2205 -0.3839
   13HTM     S713535   8.698   5.737   4.823  0.0368  0.0972  0.0486
   14TAL    C6513536   8.872   6.070   4.657  0.2649  0.4606  0.1604
   14TAL    C6613537   8.800   6.185   4.595 -0.1776  0.3267  0.7413
   14TAL    C6713538   8.904   6.284   4.545 -0.5833 -0.0960  0.6485
   14TAL    C6813539   8.844   6.416   4.502  0.0919 -0.9092  0.1852
   14TAL    C6913540   8.929   6.495   4.412 -0.2010 -0.2402 -0.1066
   14TAL    C7013541   8.841   6.601   4.341 -0.3076 -0.1646  0.8266
   15HTM    C7113542   8.943   5.754   4.707 -0.0182 -0.1776 -0.0514
   15HTM    C7213543   8.978   5.640   4.773  0.1550 -0.1802 -0.1471
   15HTM    C7313544   9.073   5.559   4.701  0.2060 -0.0226 -0.2577
   15HTM    C7413545   9.111   5.611   4.581  0.0713  0.1000 -0.2468
   15HTM     S813546   9.029   5.769   4.549 -0.1314  0.0253 -0.0943
   16TAL    C7513547   9.137   5.441   4.771 -0.0897 -0.0889 -0.2489
   16TAL    C7613548   9.042   5.355   4.850  0.5776  0.2162 -0.2049
   16TAL    C7713549   9.100   5.233   4.917  0.2984  0.3929  0.1187
   16TAL    C7813550   8.996   5.130   4.967 -0.2548  0.7715  0.0470
   16TAL    C7913551   9.059   4.992   5.008 -0.3169  0.3014 -0.3649
   16TAL    C8013552   8.961   4.895   5.062  0.3725  0.1132  0.0519
   17HTM    C8113553   9.200   5.559   4.482  0.6256  0.6427  0.4250
   17HTM    C8213554   9.203   5.590   4.349  0.3304  0.6022  0.4070
   17HTM    C8313555   9.313   5.528   4.278 -0.2164  0.0360  0.0436
   17HTM    C8413556   9.392   5.451   4.357 -0.3382 -0.3552 -0.2158
   17HTM     S913557   9.335   5.449   4.528  0.2328 -0.0360 -0.0193
   18TAL    C8513558   9.332   5.554   4.126  0.0121 -0.5357 -0.9574
   18TAL    C8613559   9.401   5.686   4.093 -0.2742  0.0910 -0.1660
   18TAL    C8713560   9.329   5.815   4.117  0.4678  0.1193 -0.1758
   18TAL    C8813561   9.194   5.830   4.050  0.3320 -0.0226  0.7277
   18TAL    C8913562   9.104   5.946   4.081 -0.2104  0.1036 -0.2442
   18TAL    C9013563   9.075   5.965   4.228 -0.2078 -0.5023  0.2204
   19HTM    C9113564   9.515   5.380   4.340  0.6180  0.3357  0.1066
   19HTM    C9213565   9.600   5.374   4.234  0.7182  0.3459  0.1872
   19HTM    C9313566   9.728   5.315   4.265  0.6422  0.2270  0.2706
   19HTM    C9413567   9.739   5.275   4.395  0.4840  0.1265  0.2536
   19HTM    S1013568   9.588   5.310   4.488  0.4183  0.1739  0.1296
   20TAL    C9513569   9.841   5.282   4.167 -0.3527 -0.3655 -0.1125
   20TAL    C9613570   9.831   5.192   4.043 -0.0102 -0.2077 -0.2473
   20TAL    C9713571   9.774   5.057   4.083  0.0128 -0.1606  0.2156
   20TAL    C9813572   9.703   4.972   3.980  0.2070 -0.0853  0.0438
   20TAL    C9913573   9.672   4.829   4.029  0.1680 -0.1822 -0.2270
   20TAL   C10013574   9.570   4.763   3.934 -0.0732  0.1186  0.4276
   21HTM   C10113575   9.842   5.213   4.469 -0.1189 -0.4685  0.4155
   21HTM   C10213576   9.842   5.089   4.527  0.0451 -0.2458  0.9010
   21HTM   C10313577   9.957   5.063   4.609  0.3029  0.0584  0.6378
   21HTM   C10413578  10.046   5.166   4.614  0.3354  0.0676 -0.0482
   21HTM    S1113579   9.990   5.306   4.515  0.0406 -0.3097 -0.4179
   22TAL   C10513580   9.981   4.926   4.677 -0.3077  0.6435  0.1294
   22TAL   C10613581   9.871   4.816   4.675  0.2835 -0.7569 -0.1757
   22TAL   C10713582   9.899   4.695   4.763 -0.7250  0.3781 -0.2376
   22TAL   C10813583   9.776   4.597   4.756  0.4060 -0.4119 -0.4149
   22TAL   C10913584   9.768   4.478   4.847  0.0066 -0.0523 -0.3260
   22TAL   C11013585   9.625   4.431   4.866 -0.4348  0.1140  0.0204
   23HTM   C11113586  10.180   5.185   4.679  0.5011 -0.7254 -0.1119
   23HTM   C11213587  10.279   5.097   4.711  0.8580 -0.3948 -0.3026
   23HTM   C11313588  10.400   5.161   4.757  0.6470 -0.0021 -0.2835
   23HTM   C11413589  10.393   5.297   4.761  0.1293 -0.0330 -0.0787
   23HTM    S1213590  10.232   5.356   4.706 -0.1339 -0.5646  0.1081
   24TAL   C11513591  10.516   5.076   4.799 -0.1770  0.2410 -0.6771
   24TAL   C11613592  10.628   5.090   4.697 -0.8557  0.2805  0.1227
   24TAL   C11713593  10.751   5.011   4.732 -0.0953  0.2046  0.4212
   24TAL   C11813594  10.872   5.016   4.643 -0.8437 -0.1734  0.2954
   24TAL   C11913595  10.943   4.884   4.635 -0.3065  0.2163 -0.1846
   24TAL   C12013596  11.092   4.892   4.587  0.1876 -0.6793  0.8518
   25HTM   C12113597  10.482   5.405   4.800  0.1662 -0.0757 -0.2059
   25HTM   C12213598  10.617   5.406   4.817  0.1389 -0.0095  0.0002
   25HTM   C12313599  10.671   5.537   4.844  0.0311  0.0122  0.1097
   25HTM   C12413600  10.576   5.636   4.846 -0.0239 -0.0368 -0.0125
   25HTM    S1313601  10.411   5.570   4.815  0.0569 -0.1157 -0.2779
   26TAL   C12513602  10.817   5.547   4.878  0.5026  0.1557  0.1149
   26TAL   C12613603  10.901   5.419   4.928  0.1448  0.0825  0.7648
   26TAL   C12713604  11.048   5.439   4.942  0.2763  0.3361 -0.3114
   26TAL   C12813605  11.083   5.534   5.054  0.1574  0.1527  0.0535
   26TAL   C12913606  11.226   5.583   5.045  0.5605  0.1160  0.1820
   26TAL   C13013607  11.253   5.706   5.127 -0.4662  0.1269  0.3798
   27HTM   C13113608  10.592   5.778   4.882 -0.2006 -0.1104  0.4394
   27HTM   C13213609  10.501   5.863   4.938 -0.1502 -0.1357  0.5605
   27HTM   C13313610  10.544   6.000   4.941 -0.3000 -0.0813  0.2515
   27HTM   C13413611  10.668   6.020   4.887 -0.4647 -0.0141 -0.1057
   27HTM    S1413612  10.740   5.866   4.828 -0.4431 -0.0143 -0.0785
   28TAL   C13513613  10.452   6.102   5.018 -0.0884  0.7871 -0.0100
   28TAL   C13613614  10.438   6.076   5.167  0.5765  0.5370 -0.3637
   28TAL   C13713615  10.401   6.195   5.255  0.1493  0.1460  0.0621
   28TAL   C13813616  10.462   6.331   5.227 -0.6670  0.0345 -0.4839
   28TAL   C13913617  10.417   6.453   5.317  0.1140 -0.0258  0.9201
   28TAL   C14013618  10.488   6.460   5.451 -0.0452 -0.0592 -0.3921
   29HTM   C14113619  10.744   6.145   4.862 -0.3552  0.2605 -0.3851
   29HTM   C14213620  10.737   6.263   4.929 -0.3344  0.3026 -0.4566
   29HTM   C14313621  10.832   6.361   4.884 -0.0084  0.1028 -0.2058
   29HTM   C14413622  10.912   6.318   4.783  0.2194 -0.0916  0.0572
   29HTM    S1513623  10.873   6.148   4.736  0.0386 -0.0364  0.0083
   30TAL   C14513624  10.837   6.500   4.942 -0.1715  0.2902 -0.2224
   30TAL   C14613625  10.743   6.535   5.053  0.3980 -0.2951 -0.2724
   30TAL   C14713626  10.758   6.673   5.116  0.1273 -0.3528  0.3941
   30TAL   C14813627  10.659   6.688   5.233 -0.4603  0.0646  0.2019
   30TAL   C14913628  10.646   6.817   5.307 -0.3496  0.2631  0.5769
   30TAL   C15013629  10.554   6.805   5.426  0.0428  1.0397 -0.1439
   31HTM   C15113630  11.036   6.379   4.725  0.2345 -0.1988  0.2248
   31HTM   C15213631  11.127   6.321   4.641  0.4493 -0.2649  0.4992
   31HTM   C15313632  11.241   6.404   4.614  0.3930 -0.1800  0.5198
   31HTM   C15413633  11.238   6.524   4.677  0.1355 -0.0493  0.2614
   31HTM    S1613634  11.089   6.543   4.777 -0.0578 -0.0231 -0.0304
   32TAL   C15513635  11.353   6.355   4.528 -0.1287 -0.4716 -0.0753
   32TAL   C15613636  11.435   6.245   4.593  0.0536 -0.1994 -0.3861
   32TAL   C15713637  11.546   6.193   4.511 -0.4819 -0.0023 -0.2261
   32TAL   C15813638  11.630   6.082   4.563  0.2395 -0.6674  0.2314
   32TAL   C15913639  11.718   6.011   4.461  0.3589  0.5195 -0.3281
   32TAL   C16013640  11.800   5.901   4.528  0.2018  0.1738  0.2548
   33HTM   C16113641  11.325   6.636   4.684 -0.0584 -0.0107  0.4120
   33HTM   C16213642  11.415   6.645   4.787  0.4209  0.2253 -0.0205
   33HTM   C16313643  11.479   6.773   4.797  0.4375  0.2623 -0.5882
   33HTM   C16413644  11.439   6.862   4.702 -0.0294  0.0546 -0.5882
   33HTM    S1713645  11.316   6.790   4.591 -0.5301 -0.2058  0.1341
   34TAL   C16513646  11.579   6.796   4.912 -0.6997  0.2361 -0.0430
   34TAL   C16613647  11.562   6.910   5.010  0.5649  0.5321  0.3684
   34TAL   C16713648  11.677   6.933   5.106 -0.4951  0.6531 -0.5121
   34TAL   C16813649  11.822   6.927   5.057 -0.4579 -0.4458  0.0830
   34TAL   C16913650  11.926   6.981   5.157  0.1487  0.3733 -1.3704
   34TAL   C17013651  11.934   7.130   5.169  0.1427 -0.7445 -0.0701
   35HTM   C17113652  11.480   7.002   4.685 -0.1653  0.1091  0.3189
   35HTM   C17213653  11.602   7.060   4.707 -0.2508  0.2666  0.3712
   35HTM   C17313654  11.613   7.193   4.653 -0.3017  0.1726  0.1307
   35HTM   C17413655  11.501   7.236   4.588 -0.2553 -0.0568 -0.1047
   35HTM    S1813656  11.371   7.111   4.592 -0.1426 -0.1720 -0.0407
   36TAL   C17513657  11.743   7.266   4.672 -0.3819  0.0123  0.2529
   36TAL   C17613658  11.778   7.314   4.820  0.3277 -0.0953 -0.4737
   36TAL   C17713659  11.663   7.395   4.888 -0.3971  0.2352 -0.3358
   36TAL   C17813660  11.698   7.489   5.005  0.0605 -0.4301 -0.5118
   36TAL   C17913661  11.705   7.417   5.141 -0.0871 -0.7485 -0.2941
   36TAL   C18013662  11.723   7.515   5.260 -0.8284  0.6819 -0.1191
   37HTM   C18113663  11.474   7.369   4.529  0.0595  0.0862 -0.0659
   37HTM   C18213664  11.535   7.437   4.428 -0.1084  0.0138 -0.2179
   37HTM   C18313665  11.471   7.562   4.395 -0.2147 -0.0522 -0.2608
   37HTM   C18413666  11.361   7.588   4.470 -0.1282 -0.0300 -0.1415
   37HTM    S1913667  11.329   7.457   4.590  0.0967  0.0766  0.0354
   38TAL   C18513668  11.512   7.656   4.280 -0.2076  0.1702  0.2275
   38TAL   C18613669  11.575   7.595   4.152 -0.1024  0.4516 -0.3943
   38TAL   C18713670  11.493   7.495   4.076 -0.4371  0.3779 -0.0607
   38TAL   C18813671  11.562   7.419   3.964 -0.3114 -0.4351  0.5386
   38TAL   C18913672  11.620   7.513   3.852 -0.6730 -0.4936 -0.2701
   38TAL   C19013673  11.659   7.444   3.726 -0.5970 -0.1459 -0.0919
   39HTM   C19113674  11.264   7.688   4.453 -0.3885 -0.2352 -0.0516
   39HTM   C19213675  11.262   7.810   4.515 -0.4388 -0.2277 -0.0682
   39HTM   C19313676  11.157   7.897   4.468 -0.4293 -0.2506 -0.1318
   39HTM   C19413677  11.079   7.842   4.370 -0.3721 -0.2755 -0.1635
   39HTM    S2013678  11.133   7.674   4.330 -0.3251 -0.2725 -0.1149
   40TAL   C19513679  11.134   8.030   4.537  0.2716  1.0203 -0.6362
   40TAL   C19613680  11.166   8.051   4.685  0.6290 -0.7838  0.6073
   40TAL   C19713681  11.118   8.188   4.732  0.2042  0.2823 -0.0286
   40TAL   C19813682  10.967   8.199   4.746  0.3879 -0.1161 -0.2540
   40TAL   C19913683  10.906   8.330   4.801 -0.1548 -0.2716 -0.0389
   40TAL   C20013684  10.753   8.335   4.810 -0.1918 -0.1104  0.1815
   41HTM   C20113685  10.963   7.890   4.297 -0.1229  0.1348  0.2453
   41HTM   C20213686  10.945   8.002   4.221  0.0708 -0.0482 -0.0706
   41HTM   C20313687  10.820   8.004   4.150  0.2660 -0.2351 -0.4253
   41HTM   C20413688  10.742   7.894   4.172  0.2211 -0.1945 -0.3798
   41HTM    S2113689  10.822   7.778   4.285 -0.0734  0.0854  0.1183
   42TAL   C20513690  10.783   8.129   4.062 -0.2035 -0.2355 -0.1139
   42TAL   C20613691  10.876   8.155   3.941 -0.5309  0.5281  0.1226
   42TAL   C20713692  10.890   8.053   3.824 -0.6270 -0.5620 -0.5811
   42TAL   C20813693  10.777   8.069   3.726 -0.2733 -0.3669  0.0183
   42TAL   C20913694  10.823   8.044   3.583 -0.5468  0.6495 -0.1380
   42TAL   C21013695  10.716   8.056   3.477  0.0789  0.4351  0.5659
   43HTM   C21113696  10.622   7.853   4.110  0.0173 -0.1150  0.2769
   43HTM   C21213697  10.495   7.846   4.160  0.1271 -0.5019  0.5021
   43HTM   C21313698  10.401   7.784   4.071  0.1163 -0.6211  0.5949
   43HTM   C21413699  10.456   7.745   3.952 -0.0017 -0.3254  0.4402
   43HTM    S2213700  10.632   7.783   3.945 -0.1092  0.1302  0.1636
   44TAL   C21513701  10.258   7.765   4.117 -0.7165  0.4199 -0.6517
   44TAL   C21613702  10.235   7.664   4.228  0.0938 -0.6385 -0.1804
   44TAL   C21713703  10.224   7.527   4.184 -0.7890  0.0547  0.6523
   44TAL   C21813704  10.252   7.443   4.300 -0.0932 -0.2162  0.2919
   44TAL   C21913705  10.262   7.300   4.256  0.0250 -1.0073 -0.1070
   44TAL   C22013706  10.266   7.210   4.374  0.8114  0.1270  0.2894
   45HTM   C22113707  10.393   7.678   3.843 -0.2579 -0.0306 -0.1422
   45HTM   C22213708  10.327   7.742   3.742  0.1727  0.0300 -0.3836
   45HTM   C22313709  10.310   7.662   3.624  0.5460  0.0515 -0.4538
   45HTM   C22413710  10.362   7.536   3.635  0.4002  0.0072 -0.2658
   45HTM    S2313711  10.438   7.510   3.797 -0.2250 -0.0658  0.0164
   46TAL   C22513712  10.240   7.721   3.504  0.1485 -0.9121 -0.5080
   46TAL   C22613713  10.327   7.778   3.390  0.6257  0.2248  0.2789
   46TAL   C22713714  10.390   7.917   3.402  0.1197 -0.1116  0.3386
   46TAL   C22813715  10.312   8.042   3.450 -0.3865  0.5502  0.2570
   46TAL   C22913716  10.178   8.060   3.395 -0.3044 -0.1228 -0.2147
   46TAL   C23013717  10.117   8.189   3.439  0.1649  0.2057 -0.3524
   47HTM   C23113718  10.352   7.425   3.546 -0.3580  0.1573  0.1072
   47HTM   C23213719  10.292   7.306   3.576 -0.3861  0.1650  0.0817
   47HTM   C23313720  10.280   7.218   3.462 -0.2218  0.1109  0.1049
   47HTM   C23413721  10.329   7.271   3.346 -0.0683  0.0623  0.1484
   47HTM    S2413722  10.396   7.436   3.372 -0.1200  0.0811  0.1633
   48TAL   C23513723  10.215   7.082   3.460  0.0861  0.0993  0.1236
   48TAL   C23613724  10.063   7.088   3.480  0.5261 -0.5753  0.3264
   48TAL   C23713725   9.999   6.954   3.512  0.7510  0.4057 -0.4911
   48TAL   C23813726   9.853   6.943   3.476 -0.3547  0.2196 -0.7102
   48TAL   C23913727   9.743   7.015   3.561 -0.2060 -0.7206  0.4564
   48TAL   C24013728   9.601   6.970   3.525 -0.1125  0.1203 -0.2265
    1HTM     C113729   7.890   1.968   2.347 -0.1620 -0.1156  0.1845
    1HTM     C213730   7.870   1.839   2.385 -0.1442  0.0071  0.6080
    1HTM     C313731   7.751   1.819   2.464 -0.1805  0.2344  0.6096
    1HTM     C413732   7.680   1.934   2.485 -0.2261  0.2850  0.1876
    1HTM     S113733   7.759   2.076   2.406 -0.2266  0.0477 -0.2483
    2TAL     C513734   7.723   1.677   2.512  0.2044 -0.4492 -0.0892
    2TAL     C613735   7.806   1.623   2.622  0.1065  0.5984 -0.3545
    2TAL     C713736   7.782   1.472   2.655  0.2401 -0.5478  0.5487
    2TAL     C813737   7.874   1.412   2.759  0.5169 -0.0465 -0.4642
    2TAL     C913738   7.877   1.256   2.743 -0.1457 -0.6272 -0.4799
    2TAL    C1013739   7.982   1.198   2.842 -0.1463 -0.3818 -0.2125
    3HTM    C1113740   7.570   1.952   2.575 -0.0131 -0.5564 -0.1658
    3HTM    C1213741   7.567   1.903   2.702  0.0913 -0.6760 -0.2096
    3HTM    C1313742   7.448   1.937   2.775  0.2666 -0.5237  0.0089
    3HTM    C1413743   7.360   2.012   2.703  0.2961 -0.2882  0.2192
    3HTM     S213744   7.421   2.046   2.537  0.1029 -0.2399  0.1572
    4TAL    C1513745   7.427   1.881   2.916  0.3587 -0.3906 -0.3862
    4TAL    C1613746   7.463   1.740   2.967 -0.7866  0.3492  0.2937
    4TAL    C1713747   7.611   1.706   2.960 -0.3059  0.2146  0.5211
    4TAL    C1813748   7.676   1.727   3.094  0.1638 -0.6751 -1.0698
    4TAL    C1913749   7.825   1.689   3.096  1.1378 -0.0269  0.4073
    4TAL    C2013750   7.877   1.672   3.232 -0.0995 -0.3048 -0.1960
    5HTM    C2113751   7.231   2.066   2.739  0.2484 -0.6664  0.0615
    5HTM    C2213752   7.208   2.173   2.820  0.6709 -0.9069  0.5050
    5HTM    C2313753   7.069   2.188   2.858  0.7238 -0.5015  0.5393
    5HTM    C2413754   6.987   2.093   2.806  0.3417  0.0480  0.1219
    5HTM     S313755   7.079   1.975   2.704 -0.1184  0.0968 -0.3505
    6TAL    C2513756   7.040   2.307   2.938  0.6075 -0.2492 -0.8968
    6TAL    C2613757   6.903   2.375   2.923  0.3828  0.3227 -0.9143
    6TAL    C2713758   6.915   2.515   2.993  0.6138  0.7411  0.2311
    6TAL    C2813759   6.782   2.595   3.009 -0.1623  0.7519 -0.0286
    6TAL    C2913760   6.663   2.519   3.064  0.5189  0.1125  0.2628
    6TAL    C3013761   6.525   2.582   3.049 -0.0743  0.4332  0.2334
    7HTM    C3113762   6.848   2.063   2.824  0.1752  0.6766  0.2615
    7HTM    C3213763   6.751   2.051   2.730  0.0868  1.4232  0.2527
    7HTM    C3313764   6.621   2.019   2.784  0.0787  1.2739  0.1476
    7HTM    C3413765   6.620   2.007   2.920  0.1617  0.4132  0.0763
    7HTM     S413766   6.784   2.034   2.990  0.2570 -0.2807  0.1369
    8TAL    C3513767   6.515   1.993   2.683 -0.8459  0.1142 -0.5957
    8TAL    C3613768   6.363   1.998   2.715 -0.0343  0.2419 -0.2120
    8TAL    C3713769   6.304   2.140   2.735  0.5394 -0.0554  0.1414
    8TAL    C3813770   6.159   2.122   2.780 -0.3704  0.1820 -0.0609
    8TAL    C3913771   6.080   2.255   2.778  0.0343 -0.4182  0.9099
    8TAL    C4013772   5.953   2.238   2.867 -0.6497 -1.2636  0.1196
    9HTM    C4113773   6.508   1.975   3.008 -0.1810  0.0531  0.1949
    9HTM    C4213774   6.438   2.066   3.082 -0.2749 -0.0879  0.2812
    9HTM    C4313775   6.309   2.020   3.125 -0.2284 -0.2605  0.2352
    9HTM    C4413776   6.280   1.893   3.084 -0.0990 -0.2511  0.1137
    9HTM     S513777   6.414   1.822   2.987 -0.0250 -0.0219  0.0476
   10TAL    C4513778   6.213   2.120   3.197  0.1403  0.3467 -0.2284
   10TAL    C4613779   6.254   2.267   3.212  0.6308 -0.1718 -0.7220
   10TAL    C4713780   6.164   2.356   3.131  0.4901  0.3660  0.7122
   10TAL    C4813781   6.178   2.503   3.160 -0.4181  0.1966 -0.5449
   10TAL    C4913782   6.069   2.590   3.107 -0.0532 -0.3956  0.4954
   10TAL    C5013783   6.097   2.737   3.152 -0.4018  0.5528 -0.4789
   11HTM    C5113784   6.159   1.819   3.112  0.1505 -0.1357  0.0608
   11HTM    C5213785   6.157   1.690   3.154  0.2131 -0.1188  0.1154
   11HTM    C5313786   6.026   1.643   3.192  0.2778 -0.0883  0.3748
   11HTM    C5413787   5.928   1.737   3.179  0.2642 -0.0821  0.5179
   11HTM     S613788   5.994   1.893   3.117  0.1682 -0.1144  0.3349
   12TAL    C5513789   6.018   1.499   3.252 -0.0909 -0.4201 -0.7345
   12TAL    C5613790   6.086   1.378   3.184  0.2714 -0.0165 -0.4862
   12TAL    C5713791   6.047   1.365   3.038  0.0494  0.2117 -0.1611
   12TAL    C5813792   5.910   1.328   2.991  0.1619  0.0159 -0.0446
   12TAL    C5913793   5.832   1.233   3.083 -0.2488 -0.0443  0.1825
   12TAL    C6013794   5.686   1.230   3.056 -0.4837  0.1042 -0.1286
   13HTM    C6113795   5.782   1.732   3.208 -0.2121  0.2287 -0.0667
   13HTM    C6213796   5.704   1.844   3.214 -0.5567 -0.0155  0.0359
   13HTM    C6313797   5.565   1.816   3.237 -0.4520 -0.4585  0.1484
   13HTM    C6413798   5.536   1.683   3.248 -0.0275 -0.5520  0.1313
   13HTM     S713799   5.684   1.582   3.231  0.2750 -0.0844 -0.0293
   14TAL    C6513800   5.464   1.928   3.244 -0.5284  0.1006  0.1834
   14TAL    C6613801   5.406   1.979   3.118 -0.5962  0.0245 -0.1545
   14TAL    C6713802   5.312   2.101   3.106  0.0838 -0.0660  0.2315
   14TAL    C6813803   5.186   2.115   3.193 -0.1731 -0.0854  0.5971
   14TAL    C6913804   5.090   2.002   3.225  0.1537  0.8021  0.2375
   14TAL    C7013805   4.977   2.054   3.302  0.1965  0.5370  0.2932
   15HTM    C7113806   5.418   1.615   3.284  0.2515 -0.2820 -0.1626
   15HTM    C7213807   5.412   1.482   3.316  0.0172 -0.3842 -0.6257
   15HTM    C7313808   5.279   1.437   3.350 -0.0384 -0.2369 -0.6477
   15HTM    C7413809   5.185   1.535   3.344  0.1533 -0.0226 -0.2015
   15HTM     S813810   5.256   1.693   3.295  0.4211  0.0102  0.2850
   16TAL    C7513811   5.252   1.293   3.388 -0.0862  0.0853 -0.6272
   16TAL    C7613812   5.325   1.184   3.321  0.8407 -0.2031 -0.2818
   16TAL    C7713813   5.299   1.054   3.388 -0.1475 -0.0336 -0.5696
   16TAL    C7813814   5.396   0.945   3.342 -0.2126  0.0084 -0.0407
   16TAL    C7913815   5.476   0.886   3.464  0.7702 -0.2965  0.2248
   16TAL    C8013816   5.535   0.749   3.447 -0.1320 -0.1811  0.0104
   17HTM    C8113817   5.042   1.525   3.381  0.1700 -0.2257 -0.4708
   17HTM    C8213818   4.976   1.634   3.429  0.1574 -0.3366 -0.2365
   17HTM    C8313819   4.840   1.608   3.468  0.1993 -0.4631 -0.1726
   17HTM    C8413820   4.801   1.479   3.448  0.2440 -0.4486 -0.3579
   17HTM     S913821   4.935   1.379   3.379  0.2362 -0.2727 -0.6298
   18TAL    C8513822   4.737   1.716   3.512 -0.0679  0.3719  0.3467
   18TAL    C8613823   4.660   1.794   3.404  0.6429 -0.2440  0.0065
   18TAL    C8713824   4.554   1.895   3.455  0.4520 -0.4876  0.4843
   18TAL    C8813825   4.438   1.957   3.359 -0.6429 -0.2328  0.1331
   18TAL    C8913826   4.356   1.859   3.277  0.3064 -0.2786 -0.3631
   18TAL    C9013827   4.244   1.930   3.212 -0.1197  0.5164 -0.7128
   19HTM    C9113828   4.684   1.421   3.506  0.2476  0.1730 -0.1455
   19HTM    C9213829   4.676   1.339   3.614  0.4623  0.0699 -0.2056
   19HTM    C9313830   4.541   1.298   3.646  0.5388 -0.0719 -0.0612
   19HTM    C9413831   4.447   1.349   3.561  0.3823 -0.0768  0.1092
   19HTM    S1013832   4.522   1.453   3.434  0.1243  0.0986  0.1001
   20TAL    C9513833   4.509   1.219   3.771  0.3189  1.1221 -0.6026
   20TAL    C9613834   4.536   1.061   3.773  0.3895 -0.3389  0.4244
   20TAL    C9713835   4.650   1.010   3.684  0.4888 -0.9898 -0.5376
   20TAL    C9813836   4.679   0.862   3.699 -0.4566 -0.1874  0.1107
   20TAL    C9913837   4.766   0.797   3.590 -0.2736 -0.4012  0.3883
   20TAL   C10013838   4.905   0.849   3.581  0.1128 -0.0709 -0.1640
   21HTM   C10113839   4.303   1.333   3.553  0.1086  0.2405  0.1867
   21HTM   C10213840   4.245   1.210   3.538  0.3138  0.0904  0.6100
   21HTM   C10313841   4.101   1.214   3.537  0.3076 -0.1385  0.4622
   21HTM   C10413842   4.050   1.340   3.551  0.0976 -0.1629 -0.0737
   21HTM    S1113843   4.180   1.464   3.566 -0.1104  0.1035 -0.4363
   22TAL   C10513844   4.017   1.086   3.546  0.0408  0.0275  0.3723
   22TAL   C10613845   3.960   1.051   3.684  0.1159  0.6427 -0.6205
   22TAL   C10713846   4.047   1.060   3.812 -0.5248 -0.3581 -0.5418
   22TAL   C10813847   4.189   0.994   3.806  0.5626 -0.3388  0.9402
   22TAL   C10913848   4.169   0.843   3.828 -0.5150 -0.5965 -0.2001
   22TAL   C11013849   4.305   0.762   3.836  0.5195 -0.2622 -0.0725
   23HTM   C11113850   3.915   1.386   3.578 -0.2106 -0.1128  0.0343
   23HTM   C11213851   3.810   1.399   3.492 -0.1268  0.1960 -0.0230
   23HTM   C11313852   3.684   1.424   3.557 -0.1446  0.2296 -0.0706
   23HTM   C11413853   3.693   1.431   3.693 -0.2418 -0.0536 -0.0494
   23HTM    S1213854   3.862   1.406   3.750 -0.3190 -0.3873  0.0329
   24TAL   C11513855   3.556   1.433   3.481  0.8313  0.5916 -0.2199
   24TAL   C11613856   3.485   1.302   3.456  0.3598 -0.3219 -0.6535
   24TAL   C11713857   3.366   1.336   3.366  0.2216 -0.2146  0.5669
   24TAL   C11813858   3.284   1.218   3.330  0.2868  0.2520 -0.6815
   24TAL   C11913859   3.183   1.247   3.234 -0.0348  0.1599  0.4736
   24TAL   C12013860   3.089   1.136   3.210  0.4345  0.3554 -0.1391
   25HTM   C12113861   3.591   1.441   3.793  0.2832  0.6535 -0.5551
   25HTM   C12213862   3.587   1.367   3.907  0.9772  0.8278 -0.4120
   25HTM   C12313863   3.465   1.384   3.982  1.2107  0.5428  0.0322
   25HTM   C12413864   3.377   1.470   3.926  0.6946  0.1511  0.2278
   25HTM    S1313865   3.441   1.538   3.771 -0.1327  0.1116 -0.1367
   26TAL   C12513866   3.429   1.289   4.094  0.5363 -1.2378  0.7930
   26TAL   C12613867   3.504   1.160   4.126  0.1318  0.0024 -0.5520
   26TAL   C12713868   3.428   1.082   4.239 -0.2660  0.0909  0.2407
   26TAL   C12813869   3.482   0.941   4.278  0.8634  0.3109  0.0907
   26TAL   C12913870   3.480   0.827   4.172  0.0432  0.6856  1.2347
   26TAL   C13013871   3.588   0.721   4.216  0.3951 -0.5084  0.5121
   27HTM   C13113872   3.251   1.521   3.969  0.0989  0.3115 -0.3595
   27HTM   C13213873   3.135   1.450   3.978  0.1334  0.2099 -0.7073
   27HTM   C13313874   3.019   1.530   4.008  0.0782  0.0260 -0.4144
   27HTM   C13413875   3.047   1.663   4.021  0.0018 -0.0126  0.1566
   27HTM    S1413876   3.223   1.697   3.997 -0.0064  0.1818  0.3704
   28TAL   C13513877   2.883   1.474   4.042  0.4685 -0.2901  0.4134
   28TAL   C13613878   2.779   1.457   3.932  0.7130  0.2062  0.4711
   28TAL   C13713879   2.720   1.566   3.840  0.2021 -0.0338  0.9618
   28TAL   C13813880   2.676   1.700   3.899 -0.1908 -0.5242 -0.5053
   28TAL   C13913881   2.567   1.697   4.009  0.3037  0.7174 -0.2819
   28TAL   C14013882   2.504   1.832   4.039 -0.6139 -0.0866 -0.1727
   29HTM   C14113883   2.977   1.782   4.072 -0.4043 -0.3123 -0.3209
   29HTM   C14213884   3.002   1.909   4.027 -0.2528 -0.3300 -0.2875
   29HTM   C14313885   2.937   2.011   4.105  0.3606 -0.2378  0.1073
   29HTM   C14413886   2.863   1.963   4.209  0.6769 -0.1498  0.3749
   29HTM    S1513887   2.869   1.783   4.216  0.2211 -0.1767  0.1474
   30TAL   C14513888   2.961   2.155   4.078  0.0335 -0.5285  0.0128
   30TAL   C14613889   2.869   2.199   3.963 -0.3753 -0.4331 -0.0074
   30TAL   C14713890   2.913   2.343   3.934 -0.3874 -0.0676 -0.0023
   30TAL   C14813891   2.846   2.412   3.814  0.9943 -0.6040  0.0964
   30TAL   C14913892   2.698   2.460   3.817  0.4414 -0.3412 -0.0427
   30TAL   C15013893   2.648   2.568   3.916 -0.0841 -0.5925  0.2292
   31HTM   C15113894   2.789   2.026   4.324 -0.3464 -0.0770 -0.4442
   31HTM   C15213895   2.777   1.983   4.453 -0.1400 -0.3396 -0.5121
   31HTM   C15313896   2.695   2.068   4.535  0.3840 -0.2443 -0.0832
   31HTM   C15413897   2.644   2.176   4.469  0.5769  0.0910  0.3118
   31HTM    S1613898   2.696   2.179   4.296  0.1083  0.3142  0.1717
   32TAL   C15513899   2.675   2.031   4.678  0.4856 -0.2049  0.5057
   32TAL   C15613900   2.564   1.938   4.722  0.4421  0.0336  0.1653
   32TAL   C15713901   2.560   1.924   4.873  0.1023 -0.1732 -0.5299
   32TAL   C15813902   2.512   2.039   4.956  1.1663 -0.3674  0.3516
   32TAL   C15913903   2.363   2.071   4.932  0.1065 -0.0797 -0.2020
   32TAL   C16013904   2.296   2.161   5.035 -0.7186 -0.6168  0.7126
   33HTM   C16113905   2.564   2.287   4.521 -0.5177 -0.0664 -0.5564
   33HTM   C16213906   2.582   2.421   4.536 -0.4990 -0.0358 -0.8395
   33HTM   C16313907   2.477   2.485   4.611 -0.1422  0.0219 -0.3891
   33HTM   C16413908   2.379   2.400   4.653  0.1109  0.0350  0.2374
   33HTM    S1713909   2.412   2.231   4.601 -0.0831 -0.0245  0.3077
   34TAL   C16513910   2.489   2.628   4.651 -0.4370  0.1019 -0.0349
   34TAL   C16613911   2.432   2.729   4.560  0.5153  0.3556 -0.1318
   34TAL   C16713912   2.290   2.748   4.519 -0.1622 -0.4488 -0.7492
   34TAL   C16813913   2.185   2.770   4.621 -0.3067  0.1006  0.0414
   34TAL   C16913914   2.046   2.765   4.556 -0.1942  0.6111  0.0182
   34TAL   C17013915   1.933   2.803   4.652 -0.2991 -0.4998  0.3075
   35HTM   C17113916   2.255   2.413   4.726  0.0929  0.0490 -0.1104
   35HTM   C17213917   2.233   2.448   4.855  0.1204  0.1186 -0.1247
   35HTM   C17313918   2.094   2.459   4.890  0.1266  0.0756 -0.0846
   35HTM   C17413919   2.009   2.433   4.786  0.1038 -0.0269 -0.0401
   35HTM    S1813920   2.100   2.391   4.636  0.0726 -0.0773 -0.0450
   36TAL   C17513921   2.050   2.495   5.031 -0.5923  0.0320  0.8471
   36TAL   C17613922   2.021   2.645   5.043 -0.0633  0.6661  0.4227
   36TAL   C17713923   1.962   2.688   5.174  0.8695  0.7389 -0.5401
   36TAL   C17813924   1.833   2.634   5.225 -0.2692  0.3522  0.0828
   36TAL   C17913925   1.814   2.647   5.374  0.3260 -0.0130  0.4758
   36TAL   C18013926   1.812   2.524   5.457  0.4186  0.0082 -0.1885
   37HTM   C18113927   1.861   2.428   4.775 -0.1226  0.1286  0.1289
   37HTM   C18213928   1.763   2.498   4.839 -0.3034 -0.4836  0.5350
   37HTM   C18313929   1.630   2.449   4.812 -0.1501 -0.9784  0.6573
   37HTM   C18413930   1.627   2.342   4.727  0.1476 -0.7433  0.3444
   37HTM    S1913931   1.793   2.294   4.675  0.2584  0.1277 -0.1326
   38TAL   C18513932   1.510   2.526   4.873  0.4450  0.1014  0.6092
   38TAL   C18613933   1.439   2.456   4.991 -0.1838  0.1198 -0.6005
   38TAL   C18713934   1.516   2.461   5.126  0.4150 -0.1093 -0.5299
   38TAL   C18813935   1.433   2.403   5.234  0.2913 -0.8286 -0.6145
   38TAL   C18913936   1.491   2.397   5.376 -0.2533 -0.1162  0.3950
   38TAL   C19013937   1.399   2.334   5.476  0.0623 -0.5985  0.2125
   39HTM   C19113938   1.531   2.258   4.666 -0.1788 -0.2081 -0.1240
   39HTM   C19213939   1.531   2.121   4.667 -0.0119 -0.2137 -0.6657
   39HTM   C19313940   1.417   2.063   4.601 -0.0061 -0.0912 -0.7846
   39HTM   C19413941   1.330   2.155   4.550 -0.1688  0.0080 -0.3337
   39HTM    S2013942   1.386   2.324   4.582 -0.3431 -0.0461  0.2812
   40TAL   C19513943   1.402   1.913   4.591  0.0072 -0.0695  0.3253
   40TAL   C19613944   1.495   1.862   4.476  0.2595 -0.7712  0.4074
   40TAL   C19713945   1.461   1.727   4.408 -0.1243  0.5946 -0.2712
   40TAL   C19813946   1.313   1.712   4.362 -0.0228  0.1846  0.2526
   40TAL   C19913947   1.279   1.603   4.260 -1.0344 -0.1632  0.3755
   40TAL   C20013948   1.131   1.563   4.258  0.4045  0.0435 -0.0654
   41HTM   C20113949   1.213   2.144   4.464  0.1990 -0.1850 -0.5386
   41HTM   C20213950   1.172   2.232   4.369 -0.1723 -0.0529 -0.2580
   41HTM   C20313951   1.048   2.195   4.305 -0.5020  0.1122  0.2723
   41HTM   C20413952   0.995   2.078   4.351 -0.3823  0.1062  0.3953
   41HTM    S2113953   1.098   2.005   4.480  0.1605 -0.1104 -0.1528
   42TAL   C20513954   0.989   2.281   4.199  0.5237  0.8563  0.0531
   42TAL   C20613955   1.038   2.266   4.059  0.3718  0.6018  0.1144
   42TAL   C20713956   1.009   2.395   3.978  0.2435 -0.0346 -0.1553
   42TAL   C20813957   0.862   2.418   3.933 -0.3170  0.2857  0.2035
   42TAL   C20913958   0.792   2.289   3.888 -0.6933  0.2420 -0.8746
   42TAL   C21013959   0.642   2.292   3.859 -0.0591 -0.2660 -0.1780
   43HTM   C21113960   0.874   2.001   4.315  0.1099 -0.1174  0.2726
   43HTM   C21213961   0.750   2.049   4.286  0.0561 -0.1079  0.5150
   43HTM   C21313962   0.652   1.946   4.266  0.0634 -0.1065  0.4709
   43HTM   C21413963   0.701   1.819   4.281  0.1226 -0.1149  0.1956
   43HTM    S2213964   0.877   1.821   4.320  0.1743 -0.1254 -0.0317
   44TAL   C21513965   0.509   1.990   4.244 -0.1796 -0.4632 -0.5930
   44TAL   C21613966   0.428   2.025   4.370 -0.0639  0.3850 -0.2736
   44TAL   C21713967   0.281   2.055   4.338  0.4087 -0.4200 -0.1117
   44TAL   C21813968   0.220   1.923   4.287 -0.1267 -0.3680 -0.1130
   44TAL   C21913969   0.073   1.950   4.266  0.4141  0.0015  0.1313
   44TAL   C22013970  -0.005   1.827   4.240 -0.2260  0.2353  0.1583
   45HTM   C22113971   0.648   1.686   4.264 -0.2473 -0.1539  0.3618
   45HTM   C22213972   0.517   1.647   4.274 -0.1467 -0.5267  0.2272
   45HTM   C22313973   0.500   1.504   4.273  0.2451 -0.5743 -0.0038
   45HTM   C22413974   0.616   1.435   4.261  0.4433 -0.2378 -0.0453
   45HTM    S2313975   0.759   1.545   4.251  0.1482  0.1685  0.2061
   46TAL   C22513976   0.359   1.435   4.259 -0.9705  0.3558 -0.1303
   46TAL   C22613977   0.232   1.514   4.248 -0.1674  0.3134 -0.3276
   46TAL   C22713978   0.114   1.417   4.251 -0.4663  0.2871 -0.1735
   46TAL   C22813979  -0.017   1.492   4.222 -0.4839 -0.4524 -0.1534
   46TAL   C22913980  -0.150   1.424   4.241  0.5072  0.4645  0.0920
   46TAL   C23013981  -0.257   1.507   4.167  0.4508 -0.1102  0.4922
   47HTM   C23113982   0.647   1.298   4.273  0.0350 -0.1407  0.2064
   47HTM   C23213983   0.737   1.244   4.360 -0.1701 -0.5165  0.1891
   47HTM   C23313984   0.745   1.101   4.355 -0.3907 -0.5150 -0.1831
   47HTM   C23413985   0.661   1.045   4.263 -0.3539 -0.1382 -0.4493
   47HTM    S2413986   0.565   1.170   4.176 -0.0352  0.2471 -0.2489
   48TAL   C23513987   0.819   0.996   4.436 -0.0564 -0.5132  0.1734
   48TAL   C23613988   0.908   1.055   4.545  0.3342 -0.1566 -0.7853
   48TAL   C23713989   0.939   0.950   4.651  0.1939 -0.0876  0.3787
   48TAL   C23813990   0.990   1.011   4.778  0.1029 -0.1312 -0.1352
   48TAL   C23913991   1.022   0.899   4.879  0.3730  0.2085  1.0140
   48TAL   C24013992   1.090   0.960   5.003  0.3939  0.6191 -0.1150
    1HTM     C113993   6.640   8.144   2.491 -0.3178 -0.4468  0.4104
    1HTM     C213994   6.526   8.097   2.549 -0.1209 -0.7405  0.5610
    1HTM     C313995   6.525   7.955   2.567  0.2310 -0.7548  0.4771
    1HTM     C413996   6.638   7.893   2.522  0.3023 -0.4720  0.2624
    1HTM     S113997   6.756   8.011   2.454 -0.0723 -0.1626  0.1489
    2TAL     C513998   6.395   7.879   2.602  0.0756 -0.4841  0.7358
    2TAL     C613999   6.292   7.968   2.672  0.2118 -0.1935 -0.3665
    2TAL     C714000   6.169   7.894   2.728  0.0769  0.3093  0.0298
    2TAL     C814001   6.197   7.800   2.843  0.0248 -0.3476  0.4106
    2TAL     C914002   6.082   7.753   2.928 -0.3406  0.2991  0.9327
    2TAL    C1014003   6.116   7.644   3.026  0.0369 -0.5870  0.6014
    3HTM    C1114004   6.678   7.757   2.502 -0.3343  0.0089 -0.3702
    3HTM    C1214005   6.704   7.696   2.383 -0.4973 -0.2694 -0.2649
    3HTM    C1314006   6.736   7.556   2.396 -0.4575 -0.2358  0.0196
    3HTM    C1414007   6.735   7.510   2.524 -0.2647  0.0682  0.1311
    3HTM     S214008   6.692   7.641   2.640 -0.1169  0.3377 -0.1164
    4TAL    C1514009   6.777   7.463   2.282 -0.2554 -0.7373  0.0792
    4TAL    C1614010   6.821   7.519   2.143 -0.3492  0.2946 -0.0897
    4TAL    C1714011   6.717   7.584   2.057  0.0167  0.8858  0.4765
    4TAL    C1814012   6.773   7.691   1.967  0.0357 -0.0129 -0.3370
    4TAL    C1914013   6.833   7.815   2.027  0.1606  0.4076 -0.3129
    4TAL    C2014014   6.737   7.914   2.090 -0.5824 -0.1029 -0.6501
    5HTM    C2114015   6.763   7.371   2.568 -0.0376 -0.2866 -0.2758
    5HTM    C2214016   6.671   7.281   2.613 -0.1130 -0.3204 -0.4960
    5HTM    C2314017   6.727   7.153   2.646 -0.1340 -0.2828 -0.3102
    5HTM    C2414018   6.861   7.144   2.626 -0.0748 -0.2203  0.0518
    5HTM     S314019   6.929   7.299   2.563  0.0132 -0.2041  0.1870
    6TAL    C2514020   6.634   7.041   2.691  0.1407 -0.0362  0.4390
    6TAL    C2614021   6.487   7.063   2.688 -0.1131 -0.7052  0.2403
    6TAL    C2714022   6.395   6.947   2.707  0.1169 -0.2786  0.1114
    6TAL    C2814023   6.248   6.970   2.674 -0.4259 -0.4605 -0.5566
    6TAL    C2914024   6.222   7.020   2.531  0.8617  0.2336 -0.3203
    6TAL    C3014025   6.075   7.039   2.494 -0.0535 -0.1480  0.1018
    7HTM    C3114026   6.957   7.037   2.642  0.0641 -0.3723 -0.6192
    7HTM    C3214027   7.078   7.019   2.584 -0.0405 -0.5772 -0.7739
    7HTM    C3314028   7.149   6.903   2.632  0.0677 -0.3798 -0.4563
    7HTM    C3414029   7.081   6.833   2.728  0.2550 -0.0244 -0.0593
    7HTM     S414030   6.922   6.909   2.764  0.3094  0.0898 -0.0561
    8TAL    C3514031   7.283   6.870   2.565 -0.4649  0.1171  0.3825
    8TAL    C3614032   7.358   6.954   2.467 -0.3203 -0.5072 -0.1423
    8TAL    C3714033   7.285   6.985   2.339  0.8332  0.2478 -0.5926
    8TAL    C3814034   7.366   7.081   2.255 -0.4216  0.7792  0.0450
    8TAL    C3914035   7.310   7.129   2.126 -0.4906  0.0785 -0.0414
    8TAL    C4014036   7.176   7.196   2.132  0.7805 -0.5550 -0.1808
    9HTM    C4114037   7.107   6.706   2.793  0.5315  0.2377 -0.3110
    9HTM    C4214038   7.043   6.667   2.906  0.5462  0.7279 -0.1289
    9HTM    C4314039   7.083   6.537   2.953  0.3581  0.8144  0.2786
    9HTM    C4414040   7.178   6.477   2.875  0.2000  0.3903  0.4075
    9HTM     S514041   7.224   6.582   2.735  0.2771 -0.1556  0.0212
   10TAL    C4514042   7.016   6.451   3.062  0.2509 -0.4600  0.4299
   10TAL    C4614043   6.867   6.416   3.050  0.0334 -0.3792  0.6384
   10TAL    C4714044   6.772   6.524   3.102 -0.3627 -0.3694  0.2502
   10TAL    C4814045   6.624   6.507   3.073  0.4794 -0.0430  0.5006
   10TAL    C4914046   6.539   6.632   3.086  0.5130  0.0320  0.3978
   10TAL    C5014047   6.509   6.704   2.949 -0.6300  0.4209 -0.5164
   11HTM    C5114048   7.233   6.340   2.872  0.3968 -0.4371 -0.2811
   11HTM    C5214049   7.157   6.234   2.836  0.5541 -0.6118 -0.1013
   11HTM    C5314050   7.217   6.106   2.867  0.6912 -0.4716  0.2135
   11HTM    C5414051   7.338   6.116   2.927  0.6385 -0.1899  0.2739
   11HTM     S614052   7.387   6.288   2.950  0.4103 -0.0795 -0.0648
   12TAL    C5514053   7.140   5.979   2.834 -0.2879 -0.1139  0.3629
   12TAL    C5614054   6.985   5.984   2.808  0.9897  0.4774 -0.2917
   12TAL    C5714055   6.905   5.857   2.771  0.7448  0.0635  0.4196
   12TAL    C5814056   6.756   5.866   2.769  0.2702 -0.6596  0.6643
   12TAL    C5914057   6.682   5.738   2.747 -0.5422  0.2563 -0.0621
   12TAL    C6014058   6.538   5.741   2.698  0.6258  0.4310 -0.2150
   13HTM    C6114059   7.433   6.014   2.961 -0.1096 -0.6862 -0.3512
   13HTM    C6214060   7.411   5.902   3.037 -0.2642 -0.9201 -0.7399
   13HTM    C6314061   7.532   5.829   3.068 -0.3088 -0.9253 -0.5804
   13HTM    C6414062   7.645   5.886   3.017 -0.1883 -0.6956 -0.0702
   13HTM     S714063   7.608   6.036   2.924 -0.0081 -0.4526  0.2512
   14TAL    C6514064   7.502   5.720   3.160 -0.3414 -0.4371 -0.5793
   14TAL    C6614065   7.446   5.747   3.298 -0.8200 -0.8874  0.0263
   14TAL    C6714066   7.415   5.617   3.371 -0.0949 -0.7740  0.4457
   14TAL    C6814067   7.372   5.635   3.512  0.4251  0.1665 -0.0803
   14TAL    C6914068   7.260   5.731   3.555  0.6011 -0.8410 -0.7968
   14TAL    C7014069   7.119   5.665   3.515  0.0908 -0.6681 -0.4485
   15HTM    C7114070   7.780   5.830   3.042  0.1821  0.1459  0.0837
   15HTM    C7214071   7.871   5.870   2.948  0.3183  0.1254  0.2072
   15HTM    C7314072   7.990   5.789   2.945  0.2604  0.0360  0.2995
   15HTM    C7414073   7.990   5.688   3.036  0.0799 -0.0115  0.2464
   15HTM     S814074   7.838   5.686   3.134 -0.0317  0.0534  0.0744
   16TAL    C7514075   8.102   5.822   2.842  0.0986  0.3058  0.0108
   16TAL    C7614076   8.177   5.948   2.868 -0.9036  0.3485 -0.0485
   16TAL    C7714077   8.296   5.966   2.780  0.6027  0.4201  0.3884
   16TAL    C7814078   8.418   5.871   2.791 -0.6793 -0.2919  0.3201
   16TAL    C7914079   8.463   5.821   2.930 -0.5230 -0.5614  0.2551
   16TAL    C8014080   8.514   5.927   3.029 -0.1005 -0.4189  0.0903
   17HTM    C8114081   8.083   5.577   3.064  0.1134  0.0455 -0.1979
   17HTM    C8214082   8.113   5.536   3.191 -0.3695 -0.2296 -0.1707
   17HTM    C8314083   8.199   5.421   3.195 -0.5975 -0.3977 -0.0906
   17HTM    C8414084   8.235   5.375   3.072 -0.2880 -0.2515 -0.0564
   17HTM     S914085   8.162   5.473   2.940  0.3192  0.1136 -0.1235
   18TAL    C8514086   8.222   5.364   3.334  0.4197  0.6345 -0.4677
   18TAL    C8614087   8.136   5.243   3.376  0.4645  0.1389  0.3915
   18TAL    C8714088   7.982   5.240   3.357  0.5507 -0.0764  1.2231
   18TAL    C8814089   7.898   5.355   3.418 -0.1447  0.3868  0.5604
   18TAL    C8914090   7.756   5.370   3.373  0.1391 -0.0207 -0.9068
   18TAL    C9014091   7.710   5.354   3.233 -0.3068 -0.5224  0.4249
   19HTM    C9114092   8.315   5.258   3.033 -0.7403 -0.1888  0.2178
   19HTM    C9214093   8.423   5.253   2.950 -1.0691  0.0913 -0.2267
   19HTM    C9314094   8.479   5.121   2.935 -0.7663  0.2406 -0.4290
   19HTM    C9414095   8.413   5.025   3.007 -0.2077  0.0743 -0.1383
   19HTM    S1014096   8.276   5.095   3.100 -0.0178 -0.2870  0.4173
   20TAL    C9514097   8.598   5.098   2.835 -0.3099 -0.2785 -0.5793
   20TAL    C9614098   8.741   5.131   2.883 -0.3125  0.0876 -0.5389
   20TAL    C9714099   8.792   5.269   2.930  0.1248 -0.4971 -0.4558
   20TAL    C9814100   8.771   5.383   2.829 -1.1507 -0.2784 -0.5211
   20TAL    C9914101   8.831   5.511   2.882  0.1218 -0.0622 -0.0387
   20TAL   C10014102   8.832   5.625   2.786 -0.1673 -0.2414  0.0985
   21HTM   C10114103   8.435   4.881   3.019  0.2004  0.0613 -0.3531
   21HTM   C10214104   8.333   4.792   3.037  0.1216  0.1342 -0.4389
   21HTM   C10314105   8.375   4.654   3.035  0.0467  0.1082 -0.2512
   21HTM   C10414106   8.510   4.638   3.016  0.0679  0.0160 -0.0222
   21HTM    S1114107   8.593   4.797   2.999  0.1855 -0.0462 -0.0259
   22TAL   C10514108   8.278   4.535   3.047 -0.4771 -0.1427  0.5656
   22TAL   C10614109   8.194   4.521   2.917  0.6735  0.3590 -1.5508
   22TAL   C10714110   8.092   4.400   2.920 -0.7471  0.2167 -0.3455
   22TAL   C10814111   8.003   4.382   3.042  0.0584  0.2398  0.3550
   22TAL   C10914112   7.879   4.289   3.026  0.1925 -0.1295  0.0504
   22TAL   C11014113   7.779   4.322   2.918 -0.4917  0.2936 -0.0041
   23HTM   C11114114   8.600   4.521   3.032  0.2177 -0.2498 -0.4251
   23HTM   C11214115   8.735   4.528   3.017  0.2437 -0.3102 -0.2195
   23HTM   C11314116   8.801   4.401   3.033  0.2007 -0.2763  0.2440
   23HTM   C11414117   8.716   4.298   3.060  0.1420 -0.1901  0.3917
   23HTM    S1214118   8.545   4.353   3.068  0.1367 -0.1443 -0.0463
   24TAL   C11514119   8.945   4.390   2.999 -0.0507 -0.0458  0.1528
   24TAL   C11614120   9.054   4.452   3.092  0.3131 -0.1298  0.2059
   24TAL   C11714121   9.070   4.387   3.226  0.3316 -0.6605  0.2790
   24TAL   C11814122   9.173   4.462   3.303  0.0348 -0.2941 -0.5521
   24TAL   C11914123   9.216   4.398   3.440 -0.1957 -0.0520  0.0246
   24TAL   C12014124   9.339   4.477   3.488  0.1734  0.5019 -1.1554
   25HTM   C12114125   8.735   4.157   3.089  0.6527 -0.2231 -0.9144
   25HTM   C12214126   8.840   4.108   3.162  0.7925 -0.3576 -1.1991
   25HTM   C12314127   8.835   3.966   3.182  0.2241 -0.2536 -0.5113
   25HTM   C12414128   8.728   3.906   3.123 -0.3488 -0.0396  0.2981
   25HTM    S1314129   8.623   4.025   3.038 -0.2136  0.0473  0.2535
   26TAL   C12514130   8.959   3.908   3.249  0.0224  0.3415 -0.1842
   26TAL   C12614131   9.090   3.936   3.177  0.2101 -0.3797 -0.6386
   26TAL   C12714132   9.215   3.873   3.238 -0.5726 -0.4244  0.3881
   26TAL   C12814133   9.210   3.722   3.279 -0.4128  0.2809  0.2402
   26TAL   C12914134   9.166   3.630   3.172  0.1761 -0.0498 -0.5416
   26TAL   C13014135   9.250   3.620   3.048 -0.2911  0.0479  0.1914
   27HTM   C13114136   8.695   3.759   3.117  0.2766  0.0529 -0.7019
   27HTM   C13214137   8.592   3.711   3.043  0.5093  0.0947 -1.0600
   27HTM   C13314138   8.578   3.567   3.050  0.2942  0.1206 -0.9282
   27HTM   C13414139   8.671   3.507   3.129 -0.1025  0.0988 -0.4698
   27HTM    S1414140   8.785   3.627   3.201 -0.2369  0.0434 -0.1665
   28TAL   C13514141   8.454   3.499   2.987  0.5005 -0.4991  0.0819
   28TAL   C13614142   8.400   3.556   2.856  0.1687  0.2444 -0.2366
   28TAL   C13714143   8.285   3.482   2.790  0.1786  0.1884 -0.6433
   28TAL   C13814144   8.150   3.501   2.857 -0.4214  0.4558 -0.5606
   28TAL   C13914145   8.091   3.640   2.849 -0.7281  0.2355 -0.6208
   28TAL   C14014146   7.963   3.651   2.930 -0.2962 -0.7624  0.1530
   29HTM   C14114147   8.703   3.368   3.158  0.4899 -0.1349  0.5111
   29HTM   C14214148   8.788   3.328   3.257  0.2689 -0.5643  0.5310
   29HTM   C14314149   8.784   3.187   3.284 -0.2737 -0.5827  0.3642
   29HTM   C14414150   8.696   3.118   3.206 -0.4674 -0.1673  0.2166
   29HTM    S1514151   8.611   3.228   3.091  0.0251  0.2827  0.2779
   30TAL   C14514152   8.868   3.126   3.400  0.3262  0.6304  0.6720
   30TAL   C14614153   8.793   3.136   3.534  0.4376 -0.5492 -0.8503
   30TAL   C14714154   8.865   3.107   3.669 -1.2291  0.0500 -0.9916
   30TAL   C14814155   8.953   2.980   3.675 -0.1952  0.0604 -0.2674
   30TAL   C14914156   9.057   2.983   3.788 -0.3488  0.0482  0.1017
   30TAL   C15014157   9.149   3.108   3.795 -0.5471  0.0343 -0.0630
   31HTM   C15114158   8.657   2.982   3.205 -0.0162  0.0420  0.5211
   31HTM   C15214159   8.530   2.947   3.171  0.1450 -0.2551  0.2199
   31HTM   C15314160   8.500   2.808   3.195  0.5202 -0.4045 -0.1773
   31HTM   C15414161   8.605   2.737   3.247  0.6446 -0.2211 -0.1789
   31HTM    S1614162   8.750   2.842   3.270  0.2960  0.1573  0.3249
   32TAL   C15514163   8.373   2.734   3.159  0.4358  0.1299  0.0964
   32TAL   C15614164   8.250   2.760   3.250  0.1539 -0.1361 -0.2479
   32TAL   C15714165   8.135   2.663   3.246 -0.4499  0.0737 -0.4253
   32TAL   C15814166   8.169   2.514   3.267 -0.1367 -0.7561  0.5061
   32TAL   C15914167   8.050   2.426   3.231  0.0189  0.3767 -0.1997
   32TAL   C16014168   8.074   2.272   3.222  0.7473 -0.1674 -0.2382
   33HTM   C16114169   8.615   2.597   3.293  0.1106 -0.2796  0.1212
   33HTM   C16214170   8.517   2.528   3.359  0.1884 -0.4798  0.0259
   33HTM   C16314171   8.556   2.395   3.396  0.3781 -0.4482 -0.0579
   33HTM   C16414172   8.683   2.362   3.359  0.4457 -0.2236 -0.0263
   33HTM    S1714173   8.764   2.499   3.273  0.2725 -0.0334  0.1128
   34TAL   C16514174   8.457   2.292   3.451  0.1471 -0.4783 -0.6037
   34TAL   C16614175   8.332   2.332   3.538  0.6456 -0.6811  0.6497
   34TAL   C16714176   8.242   2.225   3.598 -0.2947  0.6508  0.0266
   34TAL   C16814177   8.207   2.107   3.512  0.5509 -0.3807  0.0001
   34TAL   C16914178   8.119   2.004   3.587  0.1017  0.5849 -0.0181
   34TAL   C17014179   8.106   1.864   3.516  0.2087  0.2821 -0.7759
   35HTM   C17114180   8.758   2.240   3.378  0.2711 -0.0216 -0.1258
   35HTM   C17214181   8.893   2.227   3.393  0.2298 -0.0795  0.2072
   35HTM   C17314182   8.937   2.091   3.406  0.1059 -0.0793  0.6490
   35HTM   C17414183   8.835   2.000   3.400  0.0532 -0.0213  0.6526
   35HTM    S1814184   8.675   2.080   3.379  0.1563  0.0381  0.0944
   36TAL   C17514185   9.084   2.052   3.429 -0.6234 -0.1280  0.2742
   36TAL   C17614186   9.191   2.164   3.442  0.5261  0.1074  0.7117
   36TAL   C17714187   9.333   2.123   3.468 -0.4801  0.1675 -0.0624
   36TAL   C17814188   9.374   2.120   3.617  0.5432 -0.8264 -0.5536
   36TAL   C17914189   9.293   2.028   3.712 -0.2383  0.0785  0.0204
   36TAL   C18014190   9.341   2.033   3.858 -0.1390  0.4789 -0.3513
   37HTM   C18114191   8.828   1.852   3.400 -0.2134 -0.1073  0.8716
   37HTM   C18214192   8.716   1.778   3.373 -0.3653 -0.1885  1.6805
   37HTM   C18314193   8.738   1.636   3.382 -0.1249 -0.1796  1.2791
   37HTM   C18414194   8.865   1.601   3.416  0.2106 -0.0917  0.1641
   37HTM    S1914195   8.969   1.747   3.440  0.2491 -0.0126 -0.4704
   38TAL   C18514196   8.624   1.548   3.339 -0.1564 -0.3030  0.1693
   38TAL   C18614197   8.543   1.571   3.209  0.7283  0.3983 -0.2123
   38TAL   C18714198   8.442   1.457   3.183  0.5592 -0.0197 -0.4067
   38TAL   C18814199   8.325   1.461   3.274 -0.4276  0.1457 -0.0625
   38TAL   C18914200   8.230   1.345   3.272  0.0257 -0.2025 -0.2170
   38TAL   C19014201   8.110   1.338   3.363 -0.6720 -0.3622 -0.1664
   39HTM   C19114202   8.923   1.471   3.451  0.1285 -0.0042  0.2629
   39HTM   C19214203   9.054   1.455   3.488  0.0391  0.1166  0.6404
   39HTM   C19314204   9.087   1.319   3.523  0.0672  0.1432  0.7162
   39HTM   C19414205   8.982   1.232   3.514  0.1768  0.0427  0.3962
   39HTM    S2014206   8.832   1.316   3.459  0.2547 -0.0944 -0.0288
   40TAL   C19514207   9.233   1.286   3.560 -0.3436 -0.4882 -0.3013
   40TAL   C19614208   9.347   1.375   3.511 -0.0286  0.0212  0.3714
   40TAL   C19714209   9.488   1.327   3.555  0.5963 -0.1729 -0.2333
   40TAL   C19814210   9.602   1.426   3.528 -0.2028 -0.3905 -0.3376
   40TAL   C19914211   9.739   1.357   3.522  0.1494  0.9863 -0.5319
   40TAL   C20014212   9.840   1.436   3.448 -0.0656 -0.3870  0.0071
   41HTM   C20114213   8.981   1.090   3.523  0.2195 -0.1153  0.0993
   41HTM   C20214214   8.867   1.017   3.512  0.1392 -0.0181  0.2878
   41HTM   C20314215   8.888   0.874   3.522  0.0310 -0.0346  0.2812
   41HTM   C20414216   9.018   0.839   3.540  0.0284 -0.1443  0.0878
   41HTM    S2114217   9.126   0.984   3.546  0.1639 -0.2360 -0.1025
   42TAL   C20514218   8.772   0.777   3.512 -0.0494  0.5917  0.7272
   42TAL   C20614219   8.665   0.763   3.620 -0.2652  0.1538  0.1981
   42TAL   C20714220   8.726   0.721   3.753 -0.1883  0.5904 -0.7061
   42TAL   C20814221   8.651   0.761   3.878  0.0219 -0.3224 -0.9141
   42TAL   C20914222   8.509   0.716   3.891  0.1732 -0.4758 -0.8830
   42TAL   C21014223   8.441   0.728   4.030 -0.4385 -0.8783 -0.4877
   43HTM   C21114224   9.076   0.712   3.539  0.1713  0.2120 -0.0544
   43HTM   C21214225   9.049   0.614   3.447 -0.2239  0.2297  0.0411
   43HTM   C21314226   9.127   0.495   3.465 -0.7754 -0.1099  0.2174
   43HTM   C21414227   9.214   0.502   3.570 -0.8008 -0.3865  0.2563
   43HTM    S2214228   9.203   0.660   3.655 -0.1248 -0.2384  0.0720
   44TAL   C21514229   9.094   0.387   3.367  0.1654  0.0397  0.1584
   44TAL   C21614230   9.207   0.303   3.305  0.4286 -0.4951  0.0909
   44TAL   C21714231   9.173   0.176   3.236 -0.2230  0.3440 -0.0046
   44TAL   C21814232   9.064   0.175   3.128  0.5560 -0.2981  1.1415
   44TAL   C21914233   9.064   0.071   3.016 -0.5535  0.0604  0.3468
   44TAL   C22014234   9.088  -0.076   3.051 -0.1881 -0.3079 -0.4755
   45HTM   C22114235   9.307   0.406   3.628  0.2730 -0.1694 -0.2702
   45HTM   C22214236   9.426   0.439   3.686  0.3288 -0.1559 -0.3928
   45HTM   C22314237   9.490   0.330   3.754  0.1991 -0.0416 -0.0854
   45HTM   C22414238   9.420   0.213   3.749  0.0444  0.0320  0.2717
   45HTM    S2314239   9.267   0.232   3.656  0.0506 -0.0379  0.2469
   46TAL   C22514240   9.616   0.364   3.836  0.3229  0.0511 -0.2100
   46TAL   C22614241   9.697   0.275   3.932 -0.2698 -0.2741 -0.3474
   46TAL   C22714242   9.767   0.161   3.858  0.2538 -1.4017 -0.5390
   46TAL   C22814243   9.871   0.087   3.949 -0.8299 -0.2272 -0.1618
   46TAL   C22914244   9.959  -0.018   3.896 -0.0185  0.0229 -0.9773
   46TAL   C23014245   9.887  -0.137   3.836  0.2499  0.3880 -0.3064
   47HTM   C23114246   9.442   0.076   3.796  0.3445 -0.0056 -0.0047
   47HTM   C23214247   9.430   0.018   3.919  0.5684 -0.0192  0.0119
   47HTM   C23314248   9.439  -0.126   3.916  0.3046 -0.0353 -0.0544
   47HTM   C23414249   9.459  -0.178   3.792 -0.1205 -0.0342 -0.1216
   47HTM    S2414250   9.467  -0.048   3.666 -0.2214 -0.0125 -0.1065
   48TAL   C23514251   9.434  -0.199   4.049 -0.5968 -0.9118 -0.0334
   48TAL   C23614252   9.422  -0.351   4.064  0.6290 -0.5862 -0.1968
   48TAL   C23714253   9.546  -0.435   4.033  1.1709  0.4896 -0.0471
   48TAL   C23814254   9.669  -0.417   4.122 -0.0298 -0.4257  0.1413
   48TAL   C23914255   9.773  -0.533   4.101 -0.0375  0.1201 -0.5181
   48TAL   C24014256   9.904  -0.514   4.174  0.5641 -0.5795 -0.3863
    1HTM     C114257   4.719   2.169   7.690  0.0490 -0.3681 -0.0340
    1HTM     C214258   4.634   2.062   7.684 -0.0775 -0.2564 -0.2551
    1HTM     C314259   4.496   2.099   7.668 -0.0293 -0.0597 -0.2244
    1HTM     C414260   4.475   2.234   7.661  0.1335 -0.0214  0.0200
    1HTM     S114261   4.630   2.325   7.675  0.2395 -0.2326  0.2321
    2TAL     C514262   4.398   1.980   7.662  0.8407 -0.6578 -0.0706
    2TAL     C614263   4.422   1.871   7.562 -0.1846  0.1014  0.4986
    2TAL     C714264   4.522   1.777   7.612 -0.2956 -0.0337  0.4813
    2TAL     C814265   4.504   1.630   7.575 -0.1285  0.7766 -0.5362
    2TAL     C914266   4.396   1.565   7.648 -0.6709  0.1093 -0.0243
    2TAL    C1014267   4.403   1.410   7.626  0.4615  0.6527  0.1780
    3HTM    C1114268   4.348   2.309   7.633 -0.3398  0.2256  0.2945
    3HTM    C1214269   4.346   2.442   7.604 -0.6273  0.1855  0.1316
    3HTM    C1314270   4.214   2.494   7.580 -0.7155 -0.1882 -0.2012
    3HTM    C1414271   4.115   2.400   7.591 -0.4952 -0.4331 -0.2926
    3HTM     S214272   4.182   2.238   7.633 -0.1564 -0.2087  0.0380
    4TAL    C1514273   4.199   2.634   7.526  1.0588 -0.4498  0.1758
    4TAL    C1614274   4.209   2.743   7.631  0.0874 -0.0219 -0.4337
    4TAL    C1714275   4.175   2.885   7.600 -0.0932 -0.4477  0.1126
    4TAL    C1814276   4.047   2.903   7.525  0.0236 -0.4144 -0.2433
    4TAL    C1914277   4.029   3.047   7.472 -0.1890  0.0038 -0.1898
    4TAL    C2014278   3.905   3.044   7.384  0.9542 -0.2234  0.7346
    5HTM    C2114279   3.972   2.423   7.550 -0.0430 -0.0003  0.2867
    5HTM    C2214280   3.895   2.354   7.461 -0.1084 -0.2733  0.5515
    5HTM    C2314281   3.775   2.424   7.424 -0.1322 -0.3847  0.4222
    5HTM    C2414282   3.760   2.545   7.484 -0.0851 -0.1965  0.0588
    5HTM     S314283   3.898   2.581   7.594 -0.0059  0.1387 -0.1492
    6TAL    C2514284   3.688   2.365   7.317  0.0168  0.3702  0.5121
    6TAL    C2614285   3.549   2.317   7.359  0.0898 -0.4603 -0.6022
    6TAL    C2714286   3.467   2.277   7.239  0.6310 -0.0767  0.3832
    6TAL    C2814287   3.336   2.354   7.225  0.2703 -0.0583 -0.1642
    6TAL    C2914288   3.270   2.321   7.095 -0.3647 -0.1405 -0.0064
    6TAL    C3014289   3.148   2.410   7.066  0.0963  0.4328  0.4475
    7HTM    C3114290   3.668   2.655   7.477 -0.4142 -0.0009 -0.5543
    7HTM    C3214291   3.571   2.673   7.383 -0.6362  0.5220 -0.2263
    7HTM    C3314292   3.497   2.796   7.400 -0.3278  0.6309  0.3855
    7HTM    C3414293   3.538   2.871   7.506  0.1295  0.1910  0.5240
    7HTM     S414294   3.674   2.792   7.594  0.2065 -0.3997 -0.1123
    8TAL    C3514295   3.391   2.843   7.302  0.5157  0.2754  0.3127
    8TAL    C3614296   3.328   2.731   7.216 -0.2233 -0.3515  0.3388
    8TAL    C3714297   3.212   2.787   7.138 -0.5033 -0.1405  0.3971
    8TAL    C3814298   3.247   2.881   7.019 -0.3466  0.5676  0.0586
    8TAL    C3914299   3.126   2.961   6.981  0.1118 -0.8082  0.1250
    8TAL    C4014300   3.156   3.070   6.886 -0.1362 -0.1064 -0.7271
    9HTM    C4114301   3.498   3.004   7.554  0.3393 -0.4212  0.1866
    9HTM    C4214302   3.377   3.057   7.590  0.2387 -0.5403  0.0260
    9HTM    C4314303   3.387   3.188   7.647  0.0124 -0.4485 -0.1452
    9HTM    C4414304   3.514   3.236   7.655 -0.0595 -0.2596 -0.1151
    9HTM     S514305   3.633   3.117   7.590  0.1547 -0.1824  0.1339
   10TAL    C4514306   3.265   3.257   7.704  0.0134 -0.1330 -0.4508
   10TAL    C4614307   3.134   3.186   7.744  0.3837  0.1199  0.2235
   10TAL    C4714308   3.143   3.063   7.834 -0.2340  0.0199 -0.0072
   10TAL    C4814309   3.239   3.055   7.947  0.0645 -0.0421 -0.1034
   10TAL    C4914310   3.345   2.958   7.911  0.1096  0.1409  0.6775
   10TAL    C5014311   3.449   2.950   8.024 -0.1587  0.2751  1.3719
   11HTM    C5114312   3.553   3.374   7.673 -0.4996  0.0815  0.7112
   11HTM    C5214313   3.663   3.420   7.740 -0.5348  0.0321  0.8025
   11HTM    C5314314   3.686   3.561   7.724 -0.0608 -0.1028  0.2537
   11HTM    C5414315   3.594   3.623   7.645  0.3358 -0.1564 -0.2560
   11HTM     S614316   3.470   3.507   7.584  0.1400 -0.0394 -0.0814
   12TAL    C5514317   3.828   3.613   7.769  0.6310  0.2037  0.4545
   12TAL    C5614318   3.858   3.758   7.791 -0.3319 -0.0104  0.3790
   12TAL    C5714319   3.988   3.779   7.870  0.3631  0.0106  0.1345
   12TAL    C5814320   4.040   3.916   7.896  0.6314 -0.0612  0.2447
   12TAL    C5914321   4.016   4.022   7.793  0.8029 -0.2320  0.3276
   12TAL    C6014322   4.091   4.156   7.807  0.5667 -0.3436  0.2457
   13HTM    C6114323   3.572   3.759   7.624 -0.0239  0.2530  0.1523
   13HTM    C6214324   3.520   3.847   7.715  0.3386  0.4852  0.1361
   13HTM    C6314325   3.525   3.985   7.672  0.6686  0.4299 -0.0005
   13HTM    C6414326   3.581   4.002   7.548  0.5578  0.1559 -0.0895
   13HTM     S714327   3.632   3.844   7.477  0.0239 -0.0556 -0.0061
   14TAL    C6514328   3.482   4.100   7.762  0.4914 -0.1876 -0.5087
   14TAL    C6614329   3.589   4.130   7.868  0.7056 -0.1690  0.6335
   14TAL    C6714330   3.712   4.215   7.831 -0.2816  0.4773  0.3094
   14TAL    C6814331   3.698   4.364   7.817  0.0037 -0.1215  0.1495
   14TAL    C6914332   3.830   4.433   7.812  0.2520 -0.1366 -0.4362
   14TAL    C7014333   3.812   4.577   7.808 -0.2962 -0.2264 -0.0469
   15HTM    C7114334   3.570   4.121   7.462 -0.2996  0.3436 -0.4133
   15HTM    C7214335   3.460   4.145   7.386 -0.4703  0.8345 -0.0143
   15HTM    C7314336   3.462   4.273   7.319 -0.3809  1.0428  0.3824
   15HTM    C7414337   3.574   4.346   7.344 -0.1419  0.7101  0.2861
   15HTM     S814338   3.687   4.258   7.455 -0.0105  0.1040 -0.3180
   16TAL    C7514339   3.345   4.324   7.236 -0.3858  0.0062  0.8415
   16TAL    C7614340   3.296   4.240   7.114 -0.3972 -0.1139 -0.1762
   16TAL    C7714341   3.218   4.116   7.157 -0.1571  0.1600 -0.4641
   16TAL    C7814342   3.157   4.031   7.046  0.1431  0.1501 -0.4162
   16TAL    C7914343   3.057   3.930   7.084 -0.8402 -0.1872 -1.0122
   16TAL    C8014344   3.010   3.878   6.954  0.3956  1.0216 -0.1071
   17HTM    C8114345   3.600   4.485   7.325  0.4133 -0.0195 -0.2991
   17HTM    C8214346   3.568   4.572   7.225  0.4780  0.1211 -0.1981
   17HTM    C8314347   3.603   4.709   7.253  0.0924  0.1416  0.1817
   17HTM    C8414348   3.661   4.727   7.376 -0.2663  0.0172  0.3704
   17HTM     S914349   3.676   4.571   7.465 -0.1438 -0.1374  0.0808
   18TAL    C8514350   3.561   4.826   7.160  0.0682  1.0866  0.3788
   18TAL    C8614351   3.411   4.856   7.171 -0.2987 -0.0049 -0.4441
   18TAL    C8714352   3.302   4.752   7.136 -0.7688  0.1751  0.3108
   18TAL    C8814353   3.309   4.694   6.992  0.0145 -0.0780 -0.6558
   18TAL    C8914354   3.233   4.562   6.977  0.3713  0.4257  0.1163
   18TAL    C9014355   3.242   4.504   6.835 -0.0441 -0.7197  0.0105
   19HTM    C9114356   3.695   4.848   7.449 -0.1232  0.2121 -0.1479
   19HTM    C9214357   3.616   4.922   7.532  0.0396  0.0079  0.1910
   19HTM    C9314358   3.681   5.040   7.585  0.2216 -0.2506  0.5453
   19HTM    C9414359   3.810   5.055   7.542  0.1979 -0.2439  0.4759
   19HTM    S1014360   3.859   4.921   7.431 -0.0583  0.0918 -0.0459
   20TAL    C9514361   3.601   5.133   7.674  0.1231  0.9810 -0.4066
   20TAL    C9614362   3.487   5.217   7.619 -0.0648 -0.1554 -0.5493
   20TAL    C9714363   3.506   5.292   7.482  0.6949  0.2497  0.2369
   20TAL    C9814364   3.381   5.361   7.437  0.4272 -0.4659 -0.4632
   20TAL    C9914365   3.411   5.480   7.352 -0.9717 -0.2006 -0.1114
   20TAL   C10014366   3.292   5.562   7.314 -0.2617  0.5293 -0.0212
   21HTM   C10114367   3.903   5.164   7.566 -0.3479 -0.2907 -0.4495
   21HTM   C10214368   4.039   5.153   7.558 -0.3712 -0.4163 -0.6897
   21HTM   C10314369   4.109   5.277   7.575 -0.2203 -0.5047 -0.6621
   21HTM   C10414370   4.027   5.384   7.595 -0.0818 -0.4463 -0.4008
   21HTM    S1114371   3.853   5.335   7.595 -0.1316 -0.2740 -0.1679
   22TAL   C10514372   4.255   5.289   7.545  0.4105  0.3489  0.1778
   22TAL   C10614373   4.302   5.248   7.409 -0.9538 -0.8982 -0.0074
   22TAL   C10714374   4.239   5.334   7.296  0.2657 -0.5370 -0.5493
   22TAL   C10814375   4.284   5.484   7.285  0.4620  0.4695  0.1645
   22TAL   C10914376   4.418   5.509   7.230 -0.4532  0.0691  0.3311
   22TAL   C11014377   4.447   5.651   7.194 -0.0628 -0.2534 -0.2481
   23HTM   C11114378   4.056   5.527   7.613  0.1263  0.1292  0.6341
   23HTM   C11214379   4.167   5.586   7.667 -0.0381  0.3769  0.6998
   23HTM   C11314380   4.152   5.728   7.687 -0.1545  0.4449  0.1385
   23HTM   C11414381   4.031   5.777   7.648 -0.0784  0.2495 -0.3550
   23HTM    S1214382   3.925   5.647   7.583  0.1477 -0.0385 -0.1478
   24TAL   C11514383   4.256   5.812   7.766 -0.0247 -0.7363  0.0787
   24TAL   C11614384   4.365   5.747   7.850 -0.0072  0.6314  0.2015
   24TAL   C11714385   4.436   5.836   7.949 -0.8328  0.9152  0.4199
   24TAL   C11814386   4.528   5.778   8.057  0.0780  0.1474 -0.1295
   24TAL   C11914387   4.643   5.703   8.001 -0.0208 -0.2872 -0.7673
   24TAL   C12014388   4.730   5.636   8.102 -0.2847 -0.1698  0.9083
   25HTM   C12114389   3.975   5.911   7.655  0.0346  0.4387 -0.6064
   25HTM   C12214390   4.031   6.035   7.654 -0.3064  0.5944 -0.8416
   25HTM   C12314391   3.936   6.142   7.656 -0.5964  0.3347 -0.6602
   25HTM   C12414392   3.806   6.100   7.659 -0.4763 -0.0191 -0.2864
   25HTM    S1314393   3.794   5.920   7.659  0.0161 -0.0517 -0.1333
   26TAL   C12514394   3.993   6.281   7.673 -1.0099 -0.2103 -1.2461
   26TAL   C12614395   3.914   6.403   7.642 -0.0638  0.0649 -0.2831
   26TAL   C12714396   3.979   6.530   7.693  0.0453 -0.3139  0.2296
   26TAL   C12814397   3.873   6.639   7.734  0.0317 -0.0497  0.0401
   26TAL   C12914398   3.944   6.763   7.788  0.2042 -0.5080  0.3211
   26TAL   C13014399   3.847   6.864   7.855 -0.6339  0.2210  0.2143
   27HTM   C13114400   3.678   6.169   7.669  0.0107 -0.1901  0.4480
   27HTM   C13214401   3.622   6.262   7.588  0.4680  0.1924  0.5674
   27HTM   C13314402   3.488   6.300   7.626  0.4520  0.4058  0.3064
   27HTM   C13414403   3.443   6.235   7.737 -0.0172  0.1862 -0.0120
   27HTM    S1414404   3.566   6.121   7.802 -0.4795 -0.3113 -0.0068
   28TAL   C13514405   3.416   6.407   7.550 -0.1024 -0.8169  0.2683
   28TAL   C13614406   3.486   6.543   7.565  0.0843  0.2533 -0.1559
   28TAL   C13714407   3.424   6.673   7.513 -0.0933  0.4847 -0.3172
   28TAL   C13814408   3.500   6.791   7.567  0.3633 -0.2693  0.0299
   28TAL   C13914409   3.423   6.919   7.548 -0.1764  0.1050  0.9508
   28TAL   C14014410   3.504   7.040   7.585  0.2028  0.8753  0.2955
   29HTM   C14114411   3.303   6.218   7.779 -0.1035  0.3593 -0.0211
   29HTM   C14214412   3.206   6.314   7.775 -0.0410  0.4332  0.2353
   29HTM   C14314413   3.076   6.267   7.813  0.0015  0.5050  0.4690
   29HTM   C14414414   3.073   6.134   7.847 -0.0283  0.4855  0.3908
   29HTM    S1514415   3.237   6.059   7.832 -0.1135  0.3744  0.0130
   30TAL   C14514416   2.958   6.349   7.802  0.1994 -0.4835 -0.0170
   30TAL   C14614417   2.920   6.449   7.687  0.0923 -0.1385  0.2626
   30TAL   C14714418   3.023   6.560   7.655  0.0836  0.2697 -0.5504
   30TAL   C14814419   2.966   6.661   7.562 -0.0390 -0.1460  0.8846
   30TAL   C14914420   3.073   6.737   7.484  0.8591  0.4847 -0.1825
   30TAL   C15014421   3.016   6.813   7.365 -0.1190 -0.1485 -0.1815
   31HTM   C15114422   2.968   6.038   7.875 -0.1157 -0.0561  0.0873
   31HTM   C15214423   2.838   6.056   7.912 -0.2290 -0.2325 -0.2182
   31HTM   C15314424   2.759   5.935   7.909 -0.1098 -0.3030 -0.5949
   31HTM   C15414425   2.829   5.825   7.870  0.0946 -0.1807 -0.5766
   31HTM    S1614426   3.001   5.865   7.833  0.1530  0.0349 -0.0778
   32TAL   C15514427   2.610   5.931   7.939  0.6974  0.2257 -0.6346
   32TAL   C15614428   2.539   6.015   8.054  0.5702 -0.2830 -0.0061
   32TAL   C15714429   2.572   6.162   8.077  0.4057  0.1965  0.1604
   32TAL   C15814430   2.556   6.271   7.966 -0.0398  0.2541 -0.1973
   32TAL   C15914431   2.598   6.411   8.025 -0.1118 -0.3105  0.3209
   32TAL   C16014432   2.604   6.506   7.903  0.2542 -0.2084 -0.3202
   33HTM   C16114433   2.799   5.685   7.857  0.1264 -0.0179 -0.5791
   33HTM   C16214434   2.893   5.589   7.875  0.1469 -0.0792 -1.0033
   33HTM   C16314435   2.847   5.456   7.846 -0.0123 -0.0296 -0.9754
   33HTM   C16414436   2.716   5.451   7.807 -0.1541  0.0695 -0.5293
   33HTM    S1714437   2.642   5.615   7.802 -0.0972  0.1080 -0.1072
   34TAL   C16514438   2.940   5.336   7.849 -0.1920 -0.6083  0.2526
   34TAL   C16614439   2.987   5.279   7.714 -0.1297 -0.8147  0.1447
   34TAL   C16714440   3.039   5.141   7.731  0.0775  0.7649  0.3467
   34TAL   C16814441   3.119   5.083   7.618 -0.1820 -0.2314 -0.4615
   34TAL   C16914442   3.174   4.938   7.642  0.0704  0.1160  0.0056
   34TAL   C17014443   3.246   4.876   7.525  0.3112 -0.0261 -0.2471
   35HTM   C17114444   2.637   5.332   7.761  0.2049 -0.0043 -0.2641
   35HTM   C17214445   2.657   5.200   7.788 -0.1200 -0.0134 -0.0587
   35HTM   C17314446   2.561   5.113   7.727 -0.3610  0.1311  0.1140
   35HTM   C17414447   2.467   5.179   7.653 -0.2196  0.2504  0.0399
   35HTM    S1814448   2.493   5.357   7.656  0.2322  0.1888 -0.2557
   36TAL   C17514449   2.578   4.961   7.719  0.6076 -0.1241  0.8839
   36TAL   C17614450   2.710   4.886   7.722  0.0559  0.7994 -0.2609
   36TAL   C17714451   2.775   4.879   7.864  0.5091  0.7610  0.0855
   36TAL   C17814452   2.896   4.792   7.884  0.6424  0.4260  0.2081
   36TAL   C17914453   2.882   4.646   7.923  0.5354  0.1189 -1.1206
   36TAL   C18014454   3.017   4.589   7.944 -0.1875  0.2935  0.7830
   37HTM   C18114455   2.373   5.115   7.558  0.4736 -0.9673  0.1426
   37HTM   C18214456   2.396   5.109   7.423  0.5295 -0.9387  0.1502
   37HTM   C18314457   2.306   5.021   7.353  0.1621 -0.4535  0.0079
   37HTM   C18414458   2.215   4.960   7.434 -0.1742 -0.1126 -0.1082
   37HTM    S1914459   2.236   5.009   7.607 -0.0518 -0.3796 -0.0469
   38TAL   C18514460   2.329   4.989   7.210 -0.1649 -0.1400 -0.1443
   38TAL   C18614461   2.467   4.944   7.153  0.0466 -0.2934 -0.1639
   38TAL   C18714462   2.516   4.806   7.189  0.2034  0.4967  0.0744
   38TAL   C18814463   2.440   4.684   7.130  0.0757 -0.0884 -0.2464
   38TAL   C18914464   2.503   4.556   7.192 -0.2924  0.1945 -0.1807
   38TAL   C19014465   2.446   4.430   7.140  0.0307  0.8887 -0.0202
   39HTM   C19114466   2.112   4.862   7.400 -0.1427 -0.0404 -0.0137
   39HTM   C19214467   1.982   4.855   7.442 -0.0402 -0.1993  0.2761
   39HTM   C19314468   1.909   4.744   7.388  0.0751 -0.4983  0.7234
   39HTM   C19414469   1.982   4.666   7.304  0.0607 -0.5672  0.7745
   39HTM    S2014470   2.151   4.727   7.287 -0.1011 -0.2576  0.2575
   40TAL   C19514471   1.759   4.728   7.413 -0.6802  0.3769 -0.2016
   40TAL   C19614472   1.674   4.833   7.340  0.0088 -0.0586 -0.7213
   40TAL   C19714473   1.662   4.803   7.193  0.1588  0.0235  0.1495
   40TAL   C19814474   1.593   4.673   7.157  0.5395  0.1759 -0.9467
   40TAL   C19914475   1.610   4.625   7.013  0.1803  0.0274 -0.6208
   40TAL   C20014476   1.556   4.487   6.999 -0.7515  0.3366 -0.6106
   41HTM   C20114477   1.950   4.539   7.229  0.2845 -0.0802 -0.1626
   41HTM   C20214478   2.002   4.504   7.108  0.7471 -0.3078  0.1001
   41HTM   C20314479   1.954   4.377   7.060  0.9653 -0.4189  0.1757
   41HTM   C20414480   1.866   4.315   7.144  0.6690 -0.2763 -0.0296
   41HTM    S2114481   1.836   4.414   7.292  0.0871  0.0116 -0.3364
   42TAL   C20514482   2.011   4.312   6.936  0.6074 -0.7170  0.1354
   42TAL   C20614483   2.152   4.351   6.899  0.4053  0.4952  0.0310
   42TAL   C20714484   2.196   4.273   6.774  0.8728  0.1933 -0.3483
   42TAL   C20814485   2.345   4.235   6.776 -0.4280  0.2252  0.0222
   42TAL   C20914486   2.405   4.186   6.644 -0.0693  0.4892 -0.0934
   42TAL   C21014487   2.557   4.170   6.648  0.9110 -0.0955 -0.2603
   43HTM   C21114488   1.797   4.186   7.126 -0.0161 -0.0409  0.2469
   43HTM   C21214489   1.661   4.172   7.130  0.0023 -0.1698  0.4275
   43HTM   C21314490   1.617   4.035   7.118  0.1038 -0.1774  0.1292
   43HTM   C21414491   1.719   3.945   7.105  0.1628 -0.0539 -0.2785
   43HTM    S2214492   1.880   4.027   7.107  0.0941  0.0823 -0.3177
   44TAL   C21514493   1.470   4.001   7.134 -0.7546 -0.0883  0.0095
   44TAL   C21614494   1.375   4.116   7.128  0.3358 -0.2958 -0.2288
   44TAL   C21714495   1.231   4.084   7.138  0.4104  0.9070 -0.3792
   44TAL   C21814496   1.196   4.055   7.286  0.3081 -0.1560  0.1656
   44TAL   C21914497   1.053   4.022   7.314 -0.2324 -0.7039  0.2839
   44TAL   C22014498   1.025   4.011   7.469 -0.1774 -0.1093  0.2638
   45HTM   C22114499   1.726   3.804   7.106  0.5135 -0.0169  0.2230
   45HTM   C22214500   1.840   3.729   7.103  0.2579 -0.4022 -0.0741
   45HTM   C22314501   1.817   3.588   7.116 -0.2131 -0.3567 -0.3958
   45HTM   C22414502   1.685   3.554   7.128 -0.3167  0.0635 -0.3440
   45HTM    S2314503   1.579   3.700   7.124  0.1764  0.4373  0.1186
   46TAL   C22514504   1.935   3.491   7.108  0.2659 -0.0754 -0.0958
   46TAL   C22614505   1.981   3.426   7.244  0.3588  0.5496 -0.8901
   46TAL   C22714506   2.095   3.331   7.223  0.1158 -0.0459 -0.2487
   46TAL   C22814507   2.152   3.257   7.348  0.4427  0.1928 -0.3672
   46TAL   C22914508   2.242   3.334   7.448 -0.1253  0.2044  0.6275
   46TAL   C23014509   2.364   3.395   7.388 -0.2843 -0.0289  0.4629
   47HTM   C23114510   1.619   3.426   7.137 -0.1841  0.1457 -0.0755
   47HTM   C23214511   1.501   3.397   7.077  0.1552 -0.0352 -0.6588
   47HTM   C23314512   1.466   3.257   7.083  0.3602 -0.0962 -0.8729
   47HTM   C23414513   1.558   3.180   7.148  0.1774  0.0380 -0.4525
   47HTM    S2414514   1.696   3.279   7.207 -0.2716  0.2536  0.2514
   48TAL   C23514515   1.331   3.212   7.033  0.0602 -0.6508  0.1212
   48TAL   C23614516   1.304   3.066   7.012 -0.8456  0.1402  0.1034
   48TAL   C23714517   1.370   2.994   6.890 -0.0373  0.5954  0.7347
   48TAL   C23814518   1.360   3.063   6.754 -0.0237  0.6883 -0.1878
   48TAL   C23914519   1.221   3.086   6.707 -0.1729  0.1075 -0.0421
   48TAL   C24014520   1.208   3.191   6.598 -0.4788  0.6583  0.5697
    1HTM     C114521   8.447   8.133   1.407 -0.2825  0.1805  0.1647
    1HTM     C214522   8.374   8.021   1.380 -0.4559  0.2975  0.1478
    1HTM     C314523   8.235   8.048   1.354 -0.3748  0.5388 -0.0442
    1HTM     C414524   8.202   8.180   1.361 -0.1385  0.6053 -0.1735
    1HTM     S114525   8.346   8.282   1.401  0.0004  0.3655 -0.0621
    2TAL     C514526   8.138   7.934   1.312 -0.1671  0.0813 -0.6402
    2TAL     C614527   8.105   7.830   1.416 -0.0820  0.0338  0.0910
    2TAL     C714528   8.036   7.714   1.354  0.5539  0.0107  0.0660
    2TAL     C814529   8.026   7.611   1.465 -0.0375  0.8257 -0.1820
    2TAL     C914530   7.952   7.496   1.409 -0.4572  0.1385 -0.9650
    2TAL    C1014531   7.890   7.414   1.517  0.1810  0.5423  0.4939
    3HTM    C1114532   8.071   8.245   1.353  0.1300 -0.3193 -0.0059
    3HTM    C1214533   8.034   8.352   1.277 -0.0391 -0.5574 -0.2610
    3HTM    C1314534   7.893   8.380   1.282 -0.0601 -0.6714 -0.2055
    3HTM    C1414535   7.822   8.295   1.362  0.0927 -0.5214  0.0922
    3HTM     S214536   7.929   8.171   1.437  0.2763 -0.2203  0.3270
    4TAL    C1514537   7.835   8.504   1.209  0.4300  0.5504  0.3719
    4TAL    C1614538   7.934   8.620   1.176 -0.2698 -0.3163 -0.2049
    4TAL    C1714539   7.861   8.720   1.078 -0.3783  0.5195 -0.2778
    4TAL    C1814540   7.947   8.833   1.020 -0.2461 -0.0230  0.2787
    4TAL    C1914541   7.906   8.880   0.876 -0.3888 -0.4074 -0.1929
    4TAL    C2014542   8.008   8.974   0.809  0.2877 -1.4936 -0.1190
    5HTM    C2114543   7.676   8.293   1.391 -0.2605  0.6102  0.2288
    5HTM    C2214544   7.575   8.331   1.308 -0.3335  0.7911  0.3988
    5HTM    C2314545   7.443   8.305   1.360 -0.2856  0.4029  0.3318
    5HTM    C2414546   7.444   8.247   1.483 -0.1758 -0.0732  0.1108
    5HTM     S314547   7.611   8.221   1.544 -0.1238 -0.0690 -0.0310
    6TAL    C2514548   7.323   8.348   1.278 -0.0084 -0.0573 -0.3037
    6TAL    C2614549   7.346   8.408   1.129 -0.4187 -0.7652 -0.7277
    6TAL    C2714550   7.390   8.552   1.130 -0.2839 -0.2802  0.0413
    6TAL    C2814551   7.446   8.591   0.991 -0.1618  0.4040  0.1053
    6TAL    C2914552   7.491   8.737   0.997 -0.1317  0.5992 -0.0549
    6TAL    C3014553   7.550   8.784   0.861  0.0402 -0.0548  0.4230
    7HTM    C3114554   7.336   8.201   1.566  0.1880 -0.4036  0.1402
    7HTM    C3214555   7.337   8.202   1.703  0.2990 -0.4115  0.1395
    7HTM    C3314556   7.214   8.158   1.762  0.2799 -0.2303  0.2360
    7HTM    C3414557   7.119   8.123   1.671  0.1543 -0.0845  0.3102
    7HTM     S414558   7.178   8.143   1.502  0.0498 -0.1643  0.2637
    8TAL    C3514559   7.178   8.156   1.914 -0.6232  0.6710  0.1610
    8TAL    C3614560   7.268   8.077   2.010 -0.2374 -0.6639 -0.1278
    8TAL    C3714561   7.314   7.933   1.980 -0.2641 -0.7960 -0.9935
    8TAL    C3814562   7.210   7.830   1.948 -0.2759 -0.5292 -0.8722
    8TAL    C3914563   7.263   7.685   1.959  0.6234 -0.5442  0.4846
    8TAL    C4014564   7.161   7.581   1.913 -0.2673 -0.0596  0.1523
    9HTM    C4114565   6.989   8.061   1.685 -0.2126 -0.1154 -0.4706
    9HTM    C4214566   6.948   7.937   1.646 -0.2904 -0.2732  0.1051
    9HTM    C4314567   6.808   7.913   1.668 -0.2241 -0.2289  0.5846
    9HTM    C4414568   6.742   8.019   1.724 -0.0959 -0.0373  0.3742
    9HTM     S514569   6.853   8.158   1.753 -0.0484  0.1035 -0.4521
   10TAL    C4514570   6.741   7.783   1.631  0.1535  0.2821 -0.2369
   10TAL    C4614571   6.821   7.679   1.550 -0.1600  0.5958 -0.0208
   10TAL    C4714572   6.755   7.533   1.544  0.2912  0.4407 -0.3858
   10TAL    C4814573   6.729   7.447   1.671 -0.1183 -0.5457 -0.0569
   10TAL    C4914574   6.845   7.422   1.766 -0.5176 -0.1051  0.0136
   10TAL    C5014575   6.829   7.291   1.847  0.4318  0.3972  0.3425
   11HTM    C5114576   6.599   8.037   1.754 -0.0494  0.1069 -0.0092
   11HTM    C5214577   6.506   7.946   1.794 -0.1090  0.0517 -0.2683
   11HTM    C5314578   6.375   8.003   1.816 -0.1011  0.0525 -0.2246
   11HTM    C5414579   6.369   8.137   1.791 -0.0352  0.1095  0.0676
   11HTM     S614580   6.529   8.202   1.739  0.0218  0.1655  0.3124
   12TAL    C5514581   6.261   7.926   1.875  0.0625 -1.1480  0.7569
   12TAL    C5614582   6.302   7.843   1.998 -0.2590  0.4670  0.6286
   12TAL    C5714583   6.209   7.721   2.041 -0.2681 -0.5694  0.1774
   12TAL    C5814584   6.054   7.763   2.049  0.1658 -0.7805  0.6179
   12TAL    C5914585   5.973   7.637   2.043  0.6220 -0.0222 -0.4195
   12TAL    C6014586   5.822   7.657   2.052  0.0543  0.0877 -0.2775
   13HTM    C6114587   6.264   8.235   1.810 -0.1547  0.0301  0.2268
   13HTM    C6214588   6.127   8.228   1.813 -0.1612  0.2694  0.5934
   13HTM    C6314589   6.062   8.356   1.823  0.0880  0.3934  0.6283
   13HTM    C6414590   6.149   8.461   1.828  0.2842  0.2490  0.2885
   13HTM     S714591   6.321   8.406   1.820  0.1690 -0.0568 -0.1052
   14TAL    C6514592   5.916   8.358   1.845  0.3623  0.0798  0.4067
   14TAL    C6614593   5.824   8.421   1.732  0.4962  0.2447 -0.8546
   14TAL    C6714594   5.675   8.430   1.762  0.1160 -0.1111  0.2052
   14TAL    C6814595   5.592   8.307   1.786  0.2497  0.3698  0.3282
   14TAL    C6914596   5.444   8.342   1.813 -0.8366  0.5644  0.1811
   14TAL    C7014597   5.351   8.218   1.826 -0.0182  0.8089  0.7357
   15HTM    C7114598   6.127   8.606   1.833  0.3305 -0.3034 -0.0410
   15HTM    C7214599   6.041   8.667   1.919  0.5414 -0.6642  0.4295
   15HTM    C7314600   6.071   8.806   1.942  0.3514 -0.6528  0.6159
   15HTM    C7414601   6.180   8.850   1.873 -0.0040 -0.2833  0.2875
   15HTM     S814602   6.253   8.719   1.773 -0.1278  0.0812 -0.2869
   16TAL    C7514603   5.987   8.882   2.040  0.0713  0.7289  0.2364
   16TAL    C7614604   5.837   8.900   1.997 -0.3718  0.4983 -0.4679
   16TAL    C7714605   5.750   8.949   2.108  0.2146 -0.0734 -0.1810
   16TAL    C7814606   5.781   9.094   2.148  0.1576 -0.7711  0.2082
   16TAL    C7914607   5.685   9.134   2.262  0.5759  0.1641 -0.4581
   16TAL    C8014608   5.690   9.286   2.288 -0.2830  0.6801  0.5095
   17HTM    C8114609   6.239   8.981   1.863 -0.3186 -0.2322  0.0796
   17HTM    C8214610   6.367   9.019   1.837 -0.2732 -0.3667  0.1033
   17HTM    C8314611   6.384   9.162   1.824 -0.1156 -0.3815  0.1394
   17HTM    C8414612   6.268   9.232   1.840 -0.0410 -0.2585  0.1431
   17HTM     S914613   6.128   9.123   1.873 -0.1643 -0.1131  0.1011
   18TAL    C8514614   6.515   9.232   1.788  0.6522 -0.4358 -0.0314
   18TAL    C8614615   6.626   9.143   1.725  0.4210 -0.0822 -0.2263
   18TAL    C8714616   6.758   9.188   1.672  0.5182  0.2667  0.3091
   18TAL    C8814617   6.853   9.083   1.621  0.3206  0.3581 -0.5861
   18TAL    C8914618   6.926   9.154   1.514 -0.6948  0.2364 -0.0733
   18TAL    C9014619   7.051   9.080   1.467 -0.0984  0.2366  0.5760
   19HTM    C9114620   6.243   9.376   1.863 -0.4204  0.2599 -0.0828
   19HTM    C9214621   6.136   9.418   1.936 -0.5522  0.4750 -0.3982
   19HTM    C9314622   6.122   9.561   1.942 -0.4382  0.4967 -0.6648
   19HTM    C9414623   6.218   9.628   1.873 -0.2195  0.2981 -0.5527
   19HTM    S1014624   6.335   9.515   1.795 -0.1396  0.0665 -0.0982
   20TAL    C9514625   5.998   9.622   2.009 -0.0922  0.2130 -0.3618
   20TAL    C9614626   5.878   9.538   2.039 -0.0013  0.1911  0.0541
   20TAL    C9714627   5.772   9.594   2.136 -0.0250  0.3735 -0.1213
   20TAL    C9814628   5.685   9.716   2.110  0.6542  0.2920 -0.9371
   20TAL    C9914629   5.595   9.698   1.988 -0.9510 -0.0115  0.2892
   20TAL   C10014630   5.525   9.828   1.952  0.3199  0.3967 -0.2224
   21HTM   C10114631   6.236   9.768   1.860 -0.2302 -0.4472  0.1111
   21HTM   C10214632   6.248   9.842   1.745 -0.3526 -0.4891  0.0711
   21HTM   C10314633   6.253   9.984   1.768 -0.4122 -0.4768  0.0075
   21HTM   C10414634   6.244  10.019   1.900 -0.3357 -0.4256 -0.0011
   21HTM    S1114635   6.230   9.874   2.006 -0.1806 -0.3887  0.0712
   22TAL   C10514636   6.274  10.100   1.664 -0.0173  0.0683  0.0871
   22TAL   C10614637   6.338  10.059   1.532  0.5313  0.3890 -0.3722
   22TAL   C10714638   6.402  10.166   1.453  0.3935 -0.2971  0.2842
   22TAL   C10814639   6.523  10.235   1.524  0.8161  0.0123  0.2345
   22TAL   C10914640   6.611  10.331   1.441  0.1660  0.1285  0.1945
   22TAL   C11014641   6.536  10.443   1.374  0.0577  0.0570 -0.6999
   23HTM   C11114642   6.239  10.151   1.961  0.2043 -0.0704 -0.3611
   23HTM   C11214643   6.313  10.184   2.071  0.4988 -0.2533 -0.5045
   23HTM   C11314644   6.301  10.322   2.111  0.5803 -0.3259 -0.2241
   23HTM   C11414645   6.218  10.394   2.031  0.3476 -0.1984  0.1332
   23HTM    S1214646   6.148  10.294   1.899  0.0052  0.0250  0.1433
   24TAL   C11514647   6.374  10.379   2.234  0.2615 -0.5188 -0.1325
   24TAL   C11614648   6.419  10.291   2.351 -0.2881 -0.0183  0.2564
   24TAL   C11714649   6.320  10.200   2.417  1.3490 -0.0528 -0.2018
   24TAL   C11814650   6.380  10.129   2.544  0.1397 -0.5255  0.1786
   24TAL   C11914651   6.280  10.025   2.604  0.5300  0.1066 -0.0226
   24TAL   C12014652   6.136  10.085   2.643 -0.1764  0.5467  0.3872
   25HTM   C12114653   6.180  10.533   2.027 -0.0658  0.1616 -0.0190
   25HTM   C12214654   6.245  10.639   1.970  0.0417  0.2355  0.2399
   25HTM   C12314655   6.166  10.760   1.965  0.0432  0.2356  0.2257
   25HTM   C12414656   6.041  10.746   2.017 -0.0633  0.1619 -0.0442
   25HTM    S1314657   6.013  10.578   2.078 -0.1740  0.0861 -0.3033
   26TAL   C12514658   6.221  10.886   1.910  0.3560 -0.6243  0.8925
   26TAL   C12614659   6.328  10.964   1.986 -0.7921  0.1719  0.0047
   26TAL   C12714660   6.470  10.903   1.985 -0.8282 -0.1898 -0.5980
   26TAL   C12814661   6.567  10.968   2.081  0.7182 -0.5557  0.4253
   26TAL   C12914662   6.683  10.886   2.130 -0.0953  0.4584 -0.2827
   26TAL   C13014663   6.776  10.937   2.238 -0.2783  0.3748 -0.2594
   27HTM   C13114664   5.926  10.837   2.024 -0.0556 -0.0823  0.2979
   27HTM   C13214665   5.803  10.818   1.970 -0.0608 -0.0693  0.3049
   27HTM   C13314666   5.719  10.935   1.973 -0.0103 -0.0305  0.2131
   27HTM   C13414667   5.778  11.043   2.030  0.0330 -0.0139  0.1361
   27HTM    S1414668   5.946  11.006   2.084  0.0140 -0.0464  0.1739
   28TAL   C13514669   5.572  10.920   1.920 -0.2580 -0.3079  0.4312
   28TAL   C13614670   5.567  10.884   1.773  0.0482 -0.4018 -0.1588
   28TAL   C13714671   5.632  10.990   1.681  0.2705  0.2233  0.4528
   28TAL   C13814672   5.614  10.962   1.537 -0.1438 -0.3046  0.5317
   28TAL   C13914673   5.670  11.060   1.436  0.3147  0.2091 -0.1524
   28TAL   C14014674   5.822  11.095   1.438 -0.0340 -0.1719 -0.2078
   29HTM   C14114675   5.729  11.174   2.057  0.1654 -0.2334 -0.5722
   29HTM   C14214676   5.756  11.266   2.154  0.0560 -0.2872 -0.4910
   29HTM   C14314677   5.685  11.390   2.137 -0.2768 -0.4438 -0.2466
   29HTM   C14414678   5.604  11.392   2.027 -0.4214 -0.5095 -0.1416
   29HTM    S1514679   5.611  11.237   1.936 -0.1462 -0.3776 -0.3449
   30TAL   C14514680   5.701  11.508   2.227 -0.2541 -0.3886  0.3995
   30TAL   C14614681   5.834  11.581   2.234 -0.0034  0.1320 -0.0754
   30TAL   C14714682   5.913  11.627   2.109  1.2060  0.2342  0.1411
   30TAL   C14814683   5.862  11.746   2.030  0.0758  0.5813  0.1809
   30TAL   C14914684   5.954  11.777   1.909 -0.4239  0.0357  0.1603
   30TAL   C15014685   5.916  11.906   1.837 -0.7618  0.0344 -0.0699
   31HTM   C15114686   5.525  11.494   1.964  0.2376 -0.2829  0.2071
   31HTM   C15214687   5.514  11.512   1.829  0.2472 -0.4374  0.1853
   31HTM   C15314688   5.419  11.614   1.792  0.1872 -0.5394  0.0585
   31HTM   C15414689   5.358  11.673   1.898  0.1315 -0.4631 -0.0162
   31HTM    S1614690   5.415  11.605   2.055  0.1510 -0.2547  0.0681
   32TAL   C15514691   5.397  11.653   1.650 -0.1926  0.4360  0.0279
   32TAL   C15614692   5.520  11.710   1.581 -0.3638 -0.7266  0.3249
   32TAL   C15714693   5.608  11.811   1.652 -0.0971 -0.7649 -0.8359
   32TAL   C15814694   5.538  11.945   1.691 -0.0581  0.1653  0.6171
   32TAL   C15914695   5.451  12.018   1.585 -0.0554  0.4651  0.2898
   32TAL   C16014696   5.392  12.140   1.649 -0.2247 -0.1439  0.2391
   33HTM   C16114697   5.267  11.788   1.898 -0.1479 -0.4022 -0.2429
   33HTM   C16214698   5.268  11.896   1.981  0.0503 -0.3113 -0.3619
   33HTM   C16314699   5.164  11.992   1.953  0.2532 -0.1304 -0.4953
   33HTM   C16414700   5.084  11.957   1.848  0.2097 -0.0836 -0.4780
   33HTM    S1714701   5.134  11.799   1.776 -0.0929 -0.2655 -0.2905
   34TAL   C16514702   5.143  12.119   2.040  0.6287  0.4176 -0.0647
   34TAL   C16614703   5.268  12.188   2.095  0.6038 -0.1485 -0.1150
   34TAL   C16714704   5.364  12.243   1.989 -0.5186  0.2981  0.1269
   34TAL   C16814705   5.514  12.217   2.028  0.5053  0.6165  0.0536
   34TAL   C16914706   5.620  12.248   1.935  0.2468  0.6243  0.1315
   34TAL   C17014707   5.754  12.227   2.005  0.3907 -0.3186 -0.0271
   35HTM   C17114708   4.954  12.011   1.805 -0.3105 -0.0554  0.4330
   35HTM   C17214709   4.920  12.139   1.774 -0.6013  0.0486  1.1723
   35HTM   C17314710   4.789  12.152   1.718 -0.5007  0.0317  0.9322
   35HTM   C17414711   4.722  12.034   1.705 -0.1332 -0.0851  0.0096
   35HTM    S1814712   4.822  11.895   1.764  0.1161 -0.1838 -0.6323
   36TAL   C17514713   4.737  12.300   1.696  0.4622 -0.1881  0.6457
   36TAL   C17614714   4.795  12.375   1.582  0.3069  0.0124  0.2408
   36TAL   C17714715   4.800  12.322   1.432 -0.7200  0.3416  0.1321
   36TAL   C17814716   4.686  12.235   1.378  0.2418 -0.3827 -0.1176
   36TAL   C17914717   4.550  12.305   1.373 -0.1474 -0.3374 -0.0724
   36TAL   C18014718   4.444  12.201   1.346 -0.0043  0.8877 -0.6946
   37HTM   C18114719   4.582  12.001   1.672  0.0989  0.1429  0.2281
   37HTM   C18214720   4.540  11.881   1.623  0.1833  0.1339  0.1789
   37HTM   C18314721   4.399  11.874   1.597  0.2048  0.0806  0.0744
   37HTM   C18414722   4.332  11.989   1.626  0.1371  0.0489  0.0439
   37HTM    S1914723   4.444  12.116   1.689  0.0398  0.0842  0.1456
   38TAL   C18514724   4.332  11.746   1.550 -0.6127 -0.0153 -0.2769
   38TAL   C18614725   4.272  11.660   1.663 -0.9890  0.8331  0.7716
   38TAL   C18714726   4.223  11.532   1.596 -0.0116 -0.3594 -0.3879
   38TAL   C18814727   4.252  11.412   1.679  0.4339  0.1915  0.1646
   38TAL   C18914728   4.175  11.285   1.643 -0.0389 -0.3347 -0.4028
   38TAL   C19014729   4.030  11.296   1.589  0.2568 -0.1057  0.5908
   39HTM   C19114730   4.192  12.030   1.606  0.2896  0.0456  0.3100
   39HTM   C19214731   4.142  12.148   1.558  0.3924  0.3073  0.8379
   39HTM   C19314732   3.998  12.153   1.558  0.3968  0.4284  0.8453
   39HTM   C19414733   3.939  12.039   1.606  0.2973  0.2592  0.3231
   39HTM    S2014734   4.061  11.916   1.655  0.1897 -0.0690 -0.2227
   40TAL   C19514735   3.911  12.271   1.502  0.7653  0.5941  0.1386
   40TAL   C19614736   3.973  12.411   1.501 -0.0947 -0.9403  0.1400
   40TAL   C19714737   3.978  12.478   1.635 -0.4645  0.5642  0.0413
   40TAL   C19814738   3.973  12.629   1.638 -0.0764 -0.5846 -0.1263
   40TAL   C19914739   3.977  12.682   1.782 -0.3986  0.2552 -0.0180
   40TAL   C20014740   3.996  12.835   1.794 -0.3503 -0.2335  0.3779
   41HTM   C20114741   3.795  12.003   1.619  0.0421  0.5125 -0.2609
   41HTM   C20214742   3.738  11.962   1.736  0.0579  0.5606 -0.2362
   41HTM   C20314743   3.598  11.930   1.723  0.1100  0.3421 -0.2517
   41HTM   C20414744   3.549  11.945   1.597  0.1339  0.1272 -0.2883
   41HTM    S2114745   3.677  12.003   1.483  0.0921  0.1845 -0.3061
   42TAL   C20514746   3.525  11.890   1.848 -0.1612  0.6335 -0.3886
   42TAL   C20614747   3.588  11.803   1.961  0.1712 -0.3273  0.1565
   42TAL   C20714748   3.658  11.673   1.922 -0.4052  0.4070 -0.0590
   42TAL   C20814749   3.750  11.611   2.030 -0.5525  0.6428 -0.0628
   42TAL   C20914750   3.795  11.465   2.014 -0.6646  0.5483  0.1585
   42TAL   C21014751   3.898  11.446   1.901  0.7453  0.3030  0.3029
   43HTM   C21114752   3.412  11.931   1.547 -0.0625 -0.3857 -0.4536
   43HTM   C21214753   3.365  12.004   1.442 -0.0714 -0.5857 -0.5897
   43HTM   C21314754   3.227  11.977   1.411 -0.2123 -0.3045 -0.2219
   43HTM   C21414755   3.169  11.883   1.491 -0.3107  0.1101  0.1947
   43HTM    S2214756   3.286  11.821   1.614 -0.2324  0.1775  0.1544
   44TAL   C21514757   3.170  12.057   1.293 -0.2457  0.2076 -0.0060
   44TAL   C21614758   3.197  11.988   1.158  0.1372  0.3541 -0.7383
   44TAL   C21714759   3.105  11.875   1.105  0.6006  0.1043 -0.0661
   44TAL   C21814760   2.974  11.923   1.047  0.7403 -0.1106 -0.2589
   44TAL   C21914761   2.870  11.827   1.000 -0.1376  0.8222 -0.2664
   44TAL   C22014762   2.811  11.723   1.097 -0.3017 -0.0513  0.5519
   45HTM   C22114763   3.033  11.833   1.489  0.3185 -0.2536  0.1982
   45HTM   C22214764   2.921  11.908   1.466  0.3496 -0.1997  0.2235
   45HTM   C22314765   2.798  11.836   1.481  0.3198 -0.1557  0.1913
   45HTM   C22414766   2.815  11.705   1.515  0.2657 -0.1761  0.1415
   45HTM    S2314767   2.990  11.663   1.532  0.2484 -0.2529  0.1313
   46TAL   C22514768   2.675  11.920   1.449 -0.3878 -0.1682 -0.1054
   46TAL   C22614769   2.551  11.899   1.528  0.5088  0.9847  0.5993
   46TAL   C22714770   2.432  11.992   1.503  0.3296 -0.1788  0.7226
   46TAL   C22814771   2.454  12.133   1.560  0.0043 -0.6800  0.7612
   46TAL   C22914772   2.323  12.216   1.554 -0.0518 -0.4508 -0.0025
   46TAL   C23014773   2.344  12.353   1.608 -0.0740  0.3699  0.1010
   47HTM   C23114774   2.719  11.602   1.534 -0.3278 -0.1181 -0.0675
   47HTM   C23214775   2.713  11.518   1.641 -0.2741 -0.0522 -0.0128
   47HTM   C23314776   2.600  11.428   1.639 -0.1067 -0.2619 -0.0532
   47HTM   C23414777   2.521  11.444   1.529 -0.0329 -0.4878 -0.1387
   47HTM    S2414778   2.582  11.573   1.420 -0.1701 -0.4528 -0.1750
   48TAL   C23514779   2.572  11.338   1.760 -0.7641 -0.0703 -0.0991
   48TAL   C23614780   2.449  11.255   1.785 -0.3674  0.2647  0.2607
   48TAL   C23714781   2.442  11.144   1.680  0.3191  0.3670  0.2676
   48TAL   C23814782   2.301  11.118   1.629 -0.1547  0.4677 -0.5500
   48TAL   C23914783   2.291  10.987   1.541 -1.0399 -0.4416 -0.1151
   48TAL   C24014784   2.152  10.977   1.482 -0.0050 -0.2710 -0.0411
    1HTM     C114785   7.935   1.153   8.628 -0.0642  0.0619  0.1383
    1HTM     C214786   7.998   1.043   8.679  0.0727  0.0312 -0.0968
    1HTM     C314787   7.914   0.962   8.763  0.2351 -0.1402 -0.1001
    1HTM     C414788   7.787   1.010   8.777  0.2219 -0.2403  0.1332
    1HTM     S114789   7.764   1.163   8.684  0.0018 -0.1249  0.3765
    2TAL     C514790   7.964   0.836   8.824  0.2714  0.3035 -0.3190
    2TAL     C614791   7.960   0.697   8.761 -0.1055 -0.0336 -0.2266
    2TAL     C714792   8.017   0.670   8.619 -0.0593 -1.0266 -0.0362
    2TAL     C814793   8.162   0.706   8.599 -0.3601 -0.5409  0.0052
    2TAL     C914794   8.199   0.780   8.465 -0.1370  0.3058 -0.4241
    2TAL    C1014795   8.336   0.754   8.400 -0.2125  0.3201 -0.0900
    3HTM    C1114796   7.677   0.967   8.865  0.0109 -0.1186 -0.0870
    3HTM    C1214797   7.592   1.053   8.928 -0.0529 -0.2002 -0.0620
    3HTM    C1314798   7.507   0.989   9.026  0.0350 -0.2818 -0.0386
    3HTM    C1414799   7.528   0.855   9.037  0.1657 -0.2624 -0.0459
    3HTM     S214800   7.657   0.798   8.925  0.1887 -0.1385 -0.0829
    4TAL    C1514801   7.413   1.073   9.116 -0.3941  0.2245 -0.2590
    4TAL    C1614802   7.272   1.099   9.074  0.0382 -0.8270  0.7302
    4TAL    C1714803   7.244   1.178   8.942  0.0545  0.5778  0.1541
    4TAL    C1814804   7.331   1.301   8.927  0.3486  0.1382 -0.3971
    4TAL    C1914805   7.293   1.400   8.823  0.3291 -0.0447  0.9717
    4TAL    C2014806   7.363   1.366   8.689 -0.3543 -0.4911 -0.0114
    5HTM    C2114807   7.455   0.751   9.107 -0.1613 -0.0587 -0.0052
    5HTM    C2214808   7.448   0.728   9.241 -0.0193  0.1616  0.0392
    5HTM    C2314809   7.356   0.624   9.278  0.1168  0.1316  0.2973
    5HTM    C2414810   7.292   0.568   9.172  0.0790 -0.1115  0.4496
    5HTM     S314811   7.344   0.642   9.016 -0.1338 -0.3232  0.2777
    6TAL    C2514812   7.335   0.581   9.429  0.0196  0.0812  0.3020
    6TAL    C2614813   7.461   0.561   9.516  0.0171  0.0753 -0.1137
    6TAL    C2714814   7.444   0.534   9.661  0.0727  0.0156  0.2797
    6TAL    C2814815   7.576   0.540   9.734  0.1640  0.5722  0.1194
    6TAL    C2914816   7.586   0.533   9.884 -0.0010 -0.4960 -0.2445
    6TAL    C3014817   7.719   0.584   9.933  0.3353 -0.0886  0.2679
    7HTM    C3114818   7.179   0.472   9.158  0.1798 -0.2676  0.2791
    7HTM    C3214819   7.154   0.407   9.041  0.3457 -0.5525  0.4021
    7HTM    C3314820   7.052   0.307   9.051  0.3104 -0.5074  0.4937
    7HTM    C3414821   6.998   0.295   9.176  0.1181 -0.1881  0.4405
    7HTM     S414822   7.074   0.412   9.292 -0.0349  0.0824  0.2693
    8TAL    C3514823   7.005   0.235   8.922 -0.2821 -0.4429  0.4016
    8TAL    C3614824   7.104   0.147   8.838  0.1701 -0.6236 -0.5883
    8TAL    C3714825   7.198   0.054   8.920  0.2740 -0.3081 -0.9101
    8TAL    C3814826   7.141  -0.067   8.984 -0.0835  0.6206 -0.7802
    8TAL    C3914827   7.233  -0.123   9.093 -0.0770 -0.0705  0.4696
    8TAL    C4014828   7.178  -0.216   9.194 -0.2801  0.0758 -0.1072
    9HTM    C4114829   6.900   0.201   9.228  0.0447  0.0629 -0.1366
    9HTM    C4214830   6.784   0.163   9.168 -0.0463  0.1465 -0.0154
    9HTM    C4314831   6.713   0.059   9.238 -0.2573  0.4848  0.2766
    9HTM    C4414832   6.775   0.018   9.352 -0.3266  0.6591  0.3780
    9HTM     S514833   6.929   0.107   9.380 -0.1300  0.4077  0.1106
   10TAL    C4514834   6.592  -0.002   9.171  0.4936  0.1644  0.9618
   10TAL    C4614835   6.466   0.033   9.241 -0.5906  0.0499  0.0544
   10TAL    C4714836   6.366  -0.045   9.164 -0.2922  0.1094  0.0671
   10TAL    C4814837   6.217  -0.040   9.195  0.0004 -0.4375  0.0388
   10TAL    C4914838   6.188  -0.098   9.328  0.2386  0.4171 -0.7386
   10TAL    C5014839   6.044  -0.122   9.363 -0.3544 -0.7967  0.4909
   11HTM    C5114840   6.758  -0.088   9.449 -0.2202 -0.0340 -0.2579
   11HTM    C5214841   6.791  -0.217   9.421 -0.5803 -0.0768 -0.4765
   11HTM    C5314842   6.769  -0.308   9.530 -0.7825 -0.1931 -0.6127
   11HTM    C5414843   6.720  -0.248   9.642 -0.5770 -0.2387 -0.4981
   11HTM     S614844   6.697  -0.071   9.618 -0.1082 -0.1372 -0.2068
   12TAL    C5514845   6.812  -0.455   9.511  0.2967  0.3224 -0.6647
   12TAL    C5614846   6.941  -0.479   9.429 -0.2701 -0.1384 -0.2103
   12TAL    C5714847   6.939  -0.626   9.382  0.0107  0.0009 -0.0646
   12TAL    C5814848   7.064  -0.647   9.301  0.3347 -0.1315  0.2612
   12TAL    C5914849   7.080  -0.770   9.204 -0.1151  0.3057 -0.1540
   12TAL    C6014850   7.218  -0.787   9.151 -0.0156 -0.5646 -0.6695
   13HTM    C6114851   6.707  -0.310   9.772 -0.3375  0.3193 -0.1185
   13HTM    C6214852   6.594  -0.359   9.830 -0.3736  0.7954  0.2227
   13HTM    C6314853   6.613  -0.408   9.964 -0.1936  0.8025  0.1999
   13HTM    C6414854   6.741  -0.396  10.009 -0.0197  0.3314 -0.1589
   13HTM     S714855   6.848  -0.321   9.884 -0.0707 -0.1609 -0.4983
   14TAL    C6514856   6.493  -0.463  10.039 -0.0323  0.0668 -0.3745
   14TAL    C6614857   6.371  -0.371  10.056 -0.0351 -0.0673  1.0340
   14TAL    C6714858   6.397  -0.224  10.098 -0.0586 -0.0985  0.1109
   14TAL    C6814859   6.481  -0.199  10.220 -0.4297  0.6409 -0.4542
   14TAL    C6914860   6.480  -0.053  10.257  0.2229  0.1314 -0.2670
   14TAL    C7014861   6.559  -0.029  10.384 -0.2508 -0.1423 -0.4297
   15HTM    C7114862   6.788  -0.431  10.134  0.5633 -0.0116 -0.2872
   15HTM    C7214863   6.772  -0.548  10.202  0.0103  0.1731 -0.0897
   15HTM    C7314864   6.853  -0.557  10.321 -0.3960  0.1869  0.1922
   15HTM    C7414865   6.931  -0.447  10.343 -0.1526  0.0130  0.2096
   15HTM     S814866   6.907  -0.322  10.215  0.6144 -0.1840 -0.1314
   16TAL    C7514867   6.856  -0.678  10.411  0.1154 -0.1969  0.0169
   16TAL    C7614868   6.731  -0.762  10.410  0.5322  0.5132 -0.0171
   16TAL    C7714869   6.724  -0.868  10.303 -0.8458 -0.1397 -0.4196
   16TAL    C7814870   6.594  -0.942  10.327 -0.4468 -0.4971 -0.5643
   16TAL    C7914871   6.566  -1.049  10.228 -0.2908 -0.3673  0.0903
   16TAL    C8014872   6.654  -1.167  10.232 -0.2975 -0.0788 -0.0580
   17HTM    C8114873   7.033  -0.414  10.436 -0.0722  0.1173  0.0199
   17HTM    C8214874   7.049  -0.445  10.568  0.1113 -0.3114 -0.1012
   17HTM    C8314875   7.174  -0.399  10.623  0.2093 -0.5331 -0.1372
   17HTM    C8414876   7.253  -0.333  10.534  0.1005 -0.2746 -0.0436
   17HTM     S914877   7.175  -0.323  10.371 -0.1358  0.2738  0.0985
   18TAL    C8514878   7.200  -0.429  10.771  0.2054  0.2441 -0.1719
   18TAL    C8614879   7.110  -0.392  10.889  0.0411  0.4210  0.0282
   18TAL    C8714880   7.024  -0.260  10.906  0.0524  0.0030  0.1533
   18TAL    C8814881   7.082  -0.121  10.871  0.3934  0.3306  0.2964
   18TAL    C8914882   7.235  -0.104  10.909  0.1160  0.0121 -0.4859
   18TAL    C9014883   7.295   0.021  10.850 -0.1348 -0.0677 -0.1260
   19HTM    C9114884   7.387  -0.292  10.542 -0.1759 -0.1285  0.1214
   19HTM    C9214885   7.437  -0.169  10.509 -0.3171  0.1221  0.8294
   19HTM    C9314886   7.580  -0.159  10.522 -0.3400  0.2456  0.9905
   19HTM    C9414887   7.639  -0.275  10.565 -0.2160  0.0897  0.4055
   19HTM    S1014888   7.517  -0.405  10.592 -0.0594 -0.2274 -0.4006
   20TAL    C9514889   7.649  -0.024  10.497 -0.2283  0.0520  0.3259
   20TAL    C9614890   7.713  -0.001  10.365 -0.4771 -0.0272  0.3709
   20TAL    C9714891   7.783   0.137  10.366 -0.4123  0.0031  0.6846
   20TAL    C9814892   7.838   0.165  10.228 -0.3735 -0.2087 -0.0691
   20TAL    C9914893   7.880   0.310  10.209  0.0910  0.6729  0.6500
   20TAL   C10014894   7.978   0.343  10.094 -0.0025  0.3589 -0.6547
   21HTM   C10114895   7.773  -0.320  10.588  0.2585  0.0354  0.1103
   21HTM   C10214896   7.824  -0.430  10.650  0.3178 -0.0744 -0.1331
   21HTM   C10314897   7.968  -0.439  10.643  0.3090 -0.0834 -0.3181
   21HTM   C10414898   8.026  -0.335  10.576  0.2436  0.0198 -0.2158
   21HTM    S1114899   7.903  -0.218  10.516  0.1866  0.1377  0.1248
   22TAL   C10514900   8.048  -0.548  10.729 -0.0333 -0.3401  1.0180
   22TAL   C10614901   8.004  -0.566  10.872  0.4551  0.4556  0.9384
   22TAL   C10714902   7.993  -0.440  10.950  0.2166  0.1848  0.2801
   22TAL   C10814903   7.937  -0.460  11.091  0.0574 -0.7497  0.6321
   22TAL   C10914904   8.047  -0.509  11.189  0.2967  0.4001  0.7863
   22TAL   C11014905   7.998  -0.558  11.317 -0.5767  0.4753  0.2525
   23HTM   C11114906   8.166  -0.308  10.537  0.0824 -0.2176 -0.1892
   23HTM   C11214907   8.204  -0.194  10.474  0.0911 -0.4492 -0.6061
   23HTM   C11314908   8.340  -0.195  10.428  0.1345 -0.5684 -0.4721
   23HTM   C11414909   8.407  -0.311  10.457  0.1600 -0.4279  0.0471
   23HTM    S1214910   8.301  -0.428  10.544  0.1309 -0.1317  0.4097
   24TAL   C11514911   8.388  -0.075  10.360 -0.0957 -0.2467 -0.0918
   24TAL   C11614912   8.313  -0.045  10.231 -0.0052  0.2104 -0.6428
   24TAL   C11714913   8.370   0.068  10.142 -0.0438  0.2543 -0.4119
   24TAL   C11814914   8.258   0.108  10.036 -0.5784 -0.0387 -1.0470
   24TAL   C11914915   8.292   0.178   9.905 -0.2424  0.0582  0.2040
   24TAL   C12014916   8.338   0.321   9.933 -0.1439 -0.7515 -0.0605
   25HTM   C12114917   8.540  -0.357  10.427 -0.2294  0.4934  0.0309
   25HTM   C12214918   8.593  -0.475  10.471 -0.4973  0.2699 -0.2391
   25HTM   C12314919   8.734  -0.489  10.445 -0.5426 -0.0191 -0.3304
   25HTM   C12414920   8.788  -0.382  10.380 -0.3094 -0.0160 -0.1300
   25HTM    S1314921   8.665  -0.254  10.348 -0.0117  0.3549  0.1921
   26TAL   C12514922   8.802  -0.620  10.482 -0.1938 -0.0375  0.0595
   26TAL   C12614923   8.770  -0.694  10.614 -0.0155  0.4876 -0.1440
   26TAL   C12714924   8.844  -0.821  10.644 -0.1166 -0.2348  0.1598
   26TAL   C12814925   8.828  -0.878  10.789 -0.2045  0.2439 -0.2074
   26TAL   C12914926   8.697  -0.956  10.830 -0.1937 -0.4369 -0.6877
   26TAL   C13014927   8.651  -1.073  10.744 -0.2268 -0.0272  0.3096
   27HTM   C13114928   8.932  -0.353  10.364 -0.2161 -0.0373 -0.0743
   27HTM   C13214929   8.984  -0.230  10.335 -0.3853  0.0191 -0.1364
   27HTM   C13314930   9.127  -0.223  10.347 -0.4039  0.2494 -0.0442
   27HTM   C13414931   9.185  -0.340  10.386 -0.2492  0.3689  0.0881
   27HTM    S1414932   9.062  -0.470  10.411 -0.0664  0.1985  0.1067
   28TAL   C13514933   9.205  -0.093  10.319  0.2740 -0.2583 -0.4249
   28TAL   C13614934   9.256  -0.013  10.441 -0.5480 -0.3107  0.1584
   28TAL   C13714935   9.310   0.128  10.430 -0.3925 -0.6040 -0.2914
   28TAL   C13814936   9.406   0.146  10.311  0.4813  0.5594 -0.0671
   28TAL   C13914937   9.499   0.270  10.342  0.3432 -0.8124 -0.1447
   28TAL   C14014938   9.464   0.402  10.269  0.1799  0.4882 -0.3862
   29HTM   C14114939   9.320  -0.372  10.418  0.0271  0.0941  0.0802
   29HTM   C14214940   9.395  -0.472  10.362 -0.2877 -0.2012  0.1835
   29HTM   C14314941   9.507  -0.512  10.442 -0.3689 -0.4210  0.1882
   29HTM   C14414942   9.519  -0.443  10.559 -0.1161 -0.2925  0.0886
   29HTM    S1514943   9.387  -0.321  10.577  0.2470  0.1183 -0.0197
   30TAL   C14514944   9.589  -0.620  10.392 -0.3062 -0.3722  0.4652
   30TAL   C14614945   9.651  -0.624  10.255 -0.8375  0.6495  0.5179
   30TAL   C14714946   9.735  -0.506  10.212  0.1671  0.0068  0.1208
   30TAL   C14814947   9.831  -0.520  10.088  0.0009  0.2829 -0.0844
   30TAL   C14914948   9.763  -0.574   9.958  0.5867  0.5944 -0.1171
   30TAL   C15014949   9.855  -0.624   9.846 -0.1951 -0.4475 -0.3555
   31HTM   C15114950   9.609  -0.457  10.678  0.2750  0.3355 -0.0463
   31HTM   C15214951   9.736  -0.507  10.682  0.2997  0.4020  0.0048
   31HTM   C15314952   9.793  -0.510  10.814  0.1822  0.2699  0.0532
   31HTM   C15414953   9.710  -0.462  10.911  0.0680  0.1019  0.0391
   31HTM    S1614954   9.552  -0.409  10.842  0.1001  0.0985 -0.0371
   32TAL   C15514955   9.936  -0.571  10.826  0.0726  0.0998 -0.3883
   32TAL   C15614956  10.037  -0.462  10.867 -0.5790 -0.0273  0.1220
   32TAL   C15714957  10.176  -0.529  10.894 -0.2013  0.5012 -0.2273
   32TAL   C15814958  10.293  -0.433  10.885  0.7394 -0.0375  0.1059
   32TAL   C15914959  10.436  -0.493  10.868  0.0010  0.4354  0.3520
   32TAL   C16014960  10.456  -0.563  10.734 -0.2891  0.1734 -0.6301
   33HTM   C16114961   9.715  -0.433  11.055 -0.0840  0.0351 -0.2409
   33HTM   C16214962   9.790  -0.489  11.153  0.0251 -0.0391 -0.3657
   33HTM   C16314963   9.763  -0.435  11.284  0.1498 -0.1569 -0.2917
   33HTM   C16414964   9.667  -0.339  11.285  0.1358 -0.1725 -0.1105
   33HTM    S1714965   9.602  -0.308  11.120 -0.0373 -0.0386 -0.0183
   34TAL   C16514966   9.845  -0.484  11.400  0.4149  0.1543 -1.0330
   34TAL   C16614967   9.983  -0.542  11.387 -0.4301  0.3386  0.2985
   34TAL   C16714968  10.096  -0.456  11.329 -0.1529  0.8877 -0.2647
   34TAL   C16814969  10.234  -0.522  11.353 -0.0678  0.4140 -0.1595
   34TAL   C16914970  10.357  -0.444  11.309 -0.3432 -0.1438  0.2339
   34TAL   C17014971  10.494  -0.490  11.365 -0.3558  0.3230  0.1372
   35HTM   C17114972   9.618  -0.252  11.389  0.1089 -0.2157  0.6463
   35HTM   C17214973   9.550  -0.289  11.501 -0.3730  0.1178  0.4637
   35HTM   C17314974   9.490  -0.178  11.571 -0.6681  0.3271 -0.1147
   35HTM   C17414975   9.513  -0.057  11.512 -0.4112  0.1540 -0.3729
   35HTM    S1814976   9.612  -0.074  11.363  0.2283 -0.2904  0.0977
   36TAL   C17514977   9.412  -0.204  11.699 -0.5423 -0.3840  0.0761
   36TAL   C17614978   9.258  -0.186  11.703 -0.0162  0.1050  0.3332
   36TAL   C17714979   9.160  -0.248  11.600  0.4889 -0.2043  0.2632
   36TAL   C17814980   9.170  -0.403  11.585  1.0787 -0.4394 -0.3583
   36TAL   C17914981   9.062  -0.471  11.504 -0.1941  0.1357  0.1647
   36TAL   C18014982   8.915  -0.448  11.545  0.4077 -0.3024  0.0306
   37HTM   C18114983   9.468   0.081  11.537 -0.7312  0.0411  0.2660
   37HTM   C18214984   9.412   0.137  11.648 -0.8398  0.2024  0.1302
   37HTM   C18314985   9.364   0.271  11.627 -0.2181  0.4176  0.0629
   37HTM   C18414986   9.383   0.317  11.500  0.3646  0.4204  0.1479
   37HTM    S1914987   9.463   0.193  11.396  0.1717  0.1494  0.3201
   38TAL   C18514988   9.301   0.353  11.737 -0.2171 -0.0724  0.4575
   38TAL   C18614989   9.318   0.314  11.887 -0.0377  0.0914 -0.3789
   38TAL   C18714990   9.460   0.317  11.943  0.0374  0.4022 -0.2079
   38TAL   C18814991   9.540   0.446  11.944 -0.4037  0.1464 -0.9557
   38TAL   C18914992   9.682   0.440  12.010 -0.0692 -0.5338  0.3982
   38TAL   C19014993   9.791   0.365  11.938 -0.4244  0.0583 -0.2133
   39HTM   C19114994   9.337   0.439  11.440 -0.7817  0.0922  0.3093
   39HTM   C19214995   9.253   0.467  11.336 -1.2655  0.0410  0.6859
   39HTM   C19314996   9.223   0.607  11.321 -1.0632  0.0694  0.5467
   39HTM   C19414997   9.285   0.686  11.413 -0.4252  0.1421  0.0639
   39HTM    S2014998   9.386   0.590  11.527 -0.0272  0.1808 -0.2545
   40TAL   C19514999   9.124   0.656  11.214 -0.0994 -0.6973  0.2319
   40TAL   C19615000   8.975   0.679  11.263  0.0628 -0.1095  0.4615
   40TAL   C19715001   8.886   0.566  11.336  0.9653 -0.3361  0.1067
   40TAL   C19815002   8.866   0.444  11.253  0.0952  0.0304 -0.6373
   40TAL   C19915003   8.722   0.397  11.251 -0.1327  0.6457  0.1377
   40TAL   C20015004   8.712   0.255  11.210 -0.2548  0.2245  0.0106
   41HTM   C20115005   9.301   0.828  11.435  0.1643 -0.0459 -0.2091
   41HTM   C20215006   9.227   0.926  11.375  0.1698 -0.0817 -0.2753
   41HTM   C20315007   9.277   1.059  11.399  0.0224 -0.0500 -0.1408
   41HTM   C20415008   9.389   1.062  11.476 -0.0954  0.0100  0.0280
   41HTM    S2115009   9.440   0.896  11.526 -0.0289  0.0314  0.0302
   42TAL   C20515010   9.201   1.184  11.341 -1.0196  0.2281  0.0894
   42TAL   C20615011   9.048   1.173  11.322  0.3514  0.0259  0.3096
   42TAL   C20715012   8.965   1.285  11.252  0.0904 -0.1830 -0.3099
   42TAL   C20815013   8.967   1.418  11.322 -0.1114 -0.3945 -0.3635
   42TAL   C20915014   8.876   1.511  11.248 -0.0154 -0.2849 -0.6192
   42TAL   C21015015   8.833   1.633  11.329  0.5654 -0.1785 -0.3909
   43HTM   C21115016   9.471   1.173  11.528  0.2242  0.0631 -0.0528
   43HTM   C21215017   9.581   1.157  11.607 -0.1134  0.1652  0.4449
   43HTM   C21315018   9.649   1.280  11.638 -0.2756  0.2110  0.6235
   43HTM   C21415019   9.591   1.390  11.582 -0.0618  0.1437  0.2619
   43HTM    S2215020   9.444   1.346  11.486  0.3644  0.0164 -0.3367
   44TAL   C21515021   9.778   1.274  11.724  0.4294 -0.0465 -0.0074
   44TAL   C21615022   9.815   1.152  11.811 -0.2117 -0.4654  0.0283
   44TAL   C21715023   9.954   1.152  11.877 -0.2333 -0.8507  0.4229
   44TAL   C21815024   9.986   1.269  11.958  1.0288  0.2297  0.8055
   44TAL   C21915025  10.118   1.252  12.021 -0.0501  0.3514 -0.2605
   44TAL   C22015026  10.144   1.370  12.115  0.0026  0.0530  1.7647
   45HTM   C22115027   9.640   1.524  11.566  0.2298 -0.2773 -0.1361
   45HTM   C22215028   9.588   1.620  11.483  0.5287 -0.4200 -0.4927
   45HTM   C22315029   9.655   1.747  11.493  0.4608 -0.3887 -0.4300
   45HTM   C22415030   9.758   1.748  11.582  0.1101 -0.2223 -0.0255
   45HTM    S2315031   9.778   1.588  11.662 -0.1638 -0.0910  0.3104
   46TAL   C22515032   9.605   1.868  11.413 -0.4686  0.5066 -0.1240
   46TAL   C22615033   9.682   1.892  11.282 -0.9437 -0.7641  0.5541
   46TAL   C22715034   9.593   1.845  11.169 -0.2760 -0.1567 -0.4110
   46TAL   C22815035   9.662   1.842  11.036 -0.5695  0.0907 -0.1883
   46TAL   C22915036   9.595   1.781  10.918 -0.0660  0.5607  0.2745
   46TAL   C23015037   9.688   1.784  10.803 -0.3581  0.0426  0.4019
   47HTM   C23115038   9.860   1.842  11.608  0.0431 -0.0009  0.0880
   47HTM   C23215039   9.899   1.954  11.541  0.2944 -0.1496 -0.0173
   47HTM   C23315040  10.018   2.015  11.594  0.3232 -0.2604  0.0457
   47HTM   C23415041  10.071   1.949  11.701  0.0937 -0.1961  0.1988
   47HTM    S2415042   9.972   1.804  11.744 -0.1785  0.0109  0.2760
   48TAL   C23515043  10.085   2.131  11.525 -0.4055  0.2089 -0.1749
   48TAL   C23615044  10.203   2.194  11.603  0.3586 -0.1745 -0.4258
   48TAL   C23715045  10.338   2.116  11.596  0.1201  0.3373 -0.0303
   48TAL   C23815046  10.444   2.203  11.664  0.7265 -0.1329 -0.0906
   48TAL   C23915047  10.579   2.146  11.680 -0.1834 -0.4384 -0.4942
   48TAL   C24015048  10.684   2.243  11.726  0.6956 -0.1712 -0.3167
    1HTM     C115049   8.353   6.624   5.606  0.1076  0.1437  0.1393
    1HTM     C215050   8.266   6.726   5.630  0.0572  0.1285  0.0174
    1HTM     C315051   8.128   6.691   5.610  0.0758  0.0424  0.0365
    1HTM     C415052   8.109   6.561   5.571  0.1423 -0.0083  0.1730
    1HTM     S115053   8.266   6.474   5.556  0.1855  0.0497  0.2890
    2TAL     C515054   8.016   6.789   5.646  0.2408 -0.1578 -0.0585
    2TAL     C615055   8.034   6.907   5.739  0.3917 -0.2011 -0.3717
    2TAL     C715056   8.097   7.031   5.671  0.0168  0.3649 -0.0739
    2TAL     C815057   8.119   7.141   5.769 -0.4919  0.3241  0.0177
    2TAL     C915058   8.187   7.254   5.705 -0.1887 -0.5118 -0.1549
    2TAL    C1015059   8.225   7.373   5.792  0.4335  0.3584  0.4223
    3HTM    C1115060   7.987   6.489   5.538 -0.1611 -0.2643  0.1930
    3HTM    C1215061   7.973   6.353   5.534 -0.3254 -0.2401 -0.1028
    3HTM    C1315062   7.844   6.310   5.489 -0.2725  0.0107 -0.5059
    3HTM    C1415063   7.759   6.412   5.459 -0.0676  0.1779 -0.5171
    3HTM     S215064   7.837   6.572   5.485  0.0755  0.0303 -0.0157
    4TAL    C1515065   7.815   6.159   5.466  0.1423 -0.1000  0.3340
    4TAL    C1615066   7.818   6.121   5.315 -0.1879 -0.0798  0.2361
    4TAL    C1715067   7.781   5.979   5.274  0.5913 -0.1918 -0.2099
    4TAL    C1815068   7.868   5.862   5.309  0.3938  0.4157 -0.7339
    4TAL    C1915069   8.017   5.887   5.285 -0.1062 -0.3269  0.1548
    4TAL    C2015070   8.112   5.782   5.339 -0.2047 -0.3360  0.6223
    5HTM    C2115071   7.613   6.413   5.436  0.0456  0.4191 -0.2243
    5HTM    C2215072   7.538   6.334   5.354  0.1388  0.6895 -0.5720
    5HTM    C2315073   7.397   6.366   5.356  0.0918  0.4694 -0.3786
    5HTM    C2415074   7.365   6.469   5.439 -0.0369  0.0309  0.1161
    5HTM     S315075   7.511   6.534   5.523 -0.1093 -0.1391  0.3784
    6TAL    C2515076   7.302   6.306   5.251  0.7642 -0.5880  0.1993
    6TAL    C2615077   7.269   6.396   5.132  0.8256 -0.1105  0.3253
    6TAL    C2715078   7.187   6.327   5.019  0.0559 -0.6628 -0.0194
    6TAL    C2815079   7.084   6.415   4.960  0.2879 -0.1244 -0.0199
    6TAL    C2915080   7.024   6.359   4.838 -0.3487  0.2283  0.6611
    6TAL    C3015081   6.893   6.434   4.818 -0.1038  0.5226 -0.1703
    7HTM    C3115082   7.240   6.521   5.485  0.1929 -0.6996  0.1986
    7HTM    C3215083   7.222   6.608   5.588  0.1149 -0.9768  0.4213
    7HTM    C3315084   7.085   6.652   5.603  0.1438 -0.8411  0.2921
    7HTM    C3415085   7.000   6.598   5.512  0.2433 -0.4603 -0.0293
    7HTM     S415086   7.085   6.487   5.399  0.3091 -0.2416 -0.1946
    8TAL    C3515087   7.048   6.752   5.709 -0.4313 -0.2631  0.0359
    8TAL    C3615088   7.075   6.718   5.856 -0.1243  0.6800  0.4139
    8TAL    C3715089   7.088   6.842   5.945 -0.0805 -0.1080 -0.0314
    8TAL    C3815090   7.211   6.924   5.911  1.1403 -0.0335  0.3129
    8TAL    C3915091   7.245   7.022   6.021 -0.1879 -0.6756 -0.3447
    8TAL    C4015092   7.138   7.134   6.048  0.3342  0.2079 -0.1152
    9HTM    C4115093   6.853   6.606   5.496 -0.0034 -0.2672 -0.1023
    9HTM    C4215094   6.778   6.505   5.444 -0.0315 -0.2789 -0.0386
    9HTM    C4315095   6.637   6.521   5.464 -0.0296 -0.2053 -0.0870
    9HTM    C4415096   6.604   6.635   5.532 -0.0003 -0.1374 -0.1876
    9HTM     S515097   6.750   6.731   5.575  0.0275 -0.1616 -0.2288
   10TAL    C4515098   6.541   6.422   5.407  0.4589  0.6449  0.3300
   10TAL    C4615099   6.580   6.293   5.330  0.0747 -0.0594  0.6866
   10TAL    C4715100   6.652   6.296   5.190 -0.1627 -0.8451  0.3328
   10TAL    C4815101   6.738   6.177   5.133  0.1366 -0.1908  0.0318
   10TAL    C4915102   6.870   6.164   5.211  0.4365 -0.2797  0.2705
   10TAL    C5015103   6.948   6.050   5.149  0.5605 -0.4039  0.0948
   11HTM    C5115104   6.476   6.690   5.576 -0.0340 -0.5031  0.1336
   11HTM    C5215105   6.381   6.615   5.639  0.0327 -0.5634  0.1633
   11HTM    C5315106   6.293   6.693   5.723 -0.1173 -0.5915  0.0322
   11HTM    C5415107   6.320   6.826   5.724 -0.2987 -0.5528 -0.0975
   11HTM     S615108   6.461   6.865   5.618 -0.2938 -0.4771 -0.0641
   12TAL    C5515109   6.175   6.627   5.791  0.7646 -0.0580  0.1520
   12TAL    C5615110   6.201   6.542   5.914  0.4364 -0.1144 -0.4502
   12TAL    C5715111   6.309   6.578   6.020  0.2032  0.5482 -0.0670
   12TAL    C5815112   6.288   6.718   6.091 -0.0509  0.4982 -0.5967
   12TAL    C5915113   6.400   6.735   6.191  0.3194  0.1172 -0.7212
   12TAL    C6015114   6.394   6.874   6.258  0.6821 -0.5716 -0.2996
   13HTM    C6115115   6.259   6.931   5.807  0.0862  0.5624 -0.2527
   13HTM    C6215116   6.332   7.026   5.872 -0.1092  0.8585 -0.4628
   13HTM    C6315117   6.255   7.102   5.968 -0.1693  0.6227 -0.3226
   13HTM    C6415118   6.124   7.065   5.975 -0.0196  0.1463 -0.0050
   13HTM     S715119   6.087   6.930   5.861  0.2107 -0.0427  0.1423
   14TAL    C6515120   6.324   7.208   6.047  0.5898 -0.2883  0.5194
   14TAL    C6615121   6.336   7.351   5.990  0.5830 -0.6503 -0.2254
   14TAL    C6715122   6.212   7.419   5.924  0.4416 -1.4767 -0.2181
   14TAL    C6815123   6.254   7.535   5.841 -0.2398 -0.0968 -0.0195
   14TAL    C6915124   6.153   7.608   5.755 -0.6070 -0.5847  0.5576
   14TAL    C7015125   6.026   7.664   5.807 -0.2612 -0.1347 -0.3706
   15HTM    C7115126   6.021   7.115   6.066  0.3555 -0.1911  0.2437
   15HTM    C7215127   5.989   7.246   6.086  0.5984 -0.1388  0.3040
   15HTM    C7315128   5.872   7.264   6.168  0.4475  0.0346  0.0522
   15HTM    C7415129   5.815   7.147   6.210  0.0891  0.1146 -0.2005
   15HTM     S815130   5.906   7.004   6.149 -0.0868 -0.0239 -0.1393
   16TAL    C7515131   5.839   7.406   6.222 -0.0439 -0.1136 -0.5993
   16TAL    C7615132   5.840   7.524   6.120  0.0155  0.4834 -0.1760
   16TAL    C7715133   5.842   7.661   6.178 -0.4635 -0.8947  0.2279
   16TAL    C7815134   5.966   7.697   6.263  0.0932  0.1669 -0.3222
   16TAL    C7915135   6.104   7.676   6.201  0.3891  0.2512 -1.0135
   16TAL    C8015136   6.219   7.684   6.299 -0.0351  0.3107  0.3089
   17HTM    C8115137   5.699   7.129   6.297  0.2785  0.0324  0.4793
   17HTM    C8215138   5.689   7.086   6.426  0.0718  0.1309  0.4969
   17HTM    C8315139   5.554   7.076   6.474 -0.0126  0.0064  0.2334
   17HTM    C8415140   5.460   7.111   6.381  0.1292 -0.1871  0.0149
   17HTM     S915141   5.537   7.160   6.226  0.3829 -0.2271  0.1258
   18TAL    C8515142   5.532   7.015   6.606  0.4194 -0.2312 -0.6643
   18TAL    C8615143   5.535   7.119   6.714 -0.2220 -0.0759 -0.5497
   18TAL    C8715144   5.667   7.125   6.783  0.3623 -0.6545 -0.4786
   18TAL    C8815145   5.681   7.242   6.878  0.3557  0.6447 -0.6745
   18TAL    C8915146   5.823   7.270   6.926 -0.7593  0.3170 -0.3897
   18TAL    C9015147   5.845   7.416   6.966  0.6067 -0.0839  0.5796
   19HTM    C9115148   5.317   7.122   6.391 -0.0791 -0.0262 -0.0211
   19HTM    C9215149   5.241   7.128   6.505  0.0160 -0.0415  0.0436
   19HTM    C9315150   5.100   7.141   6.479 -0.0267 -0.2680  0.1619
   19HTM    C9415151   5.068   7.144   6.346 -0.1537 -0.4254  0.1873
   19HTM    S1015152   5.215   7.132   6.243 -0.2308 -0.2989  0.0628
   20TAL    C9515153   4.998   7.161   6.590 -0.9631 -0.4303  0.2462
   20TAL    C9615154   5.049   7.192   6.730  0.2045  0.0732  0.1417
   20TAL    C9715155   5.096   7.335   6.755 -0.3638  0.0675 -0.3651
   20TAL    C9815156   5.149   7.352   6.899 -0.1159 -0.5987 -0.4523
   20TAL    C9915157   5.281   7.290   6.934  0.3554  0.3930 -0.0253
   20TAL   C10015158   5.308   7.313   7.079  0.1237 -0.2025  0.2348
   21HTM   C10115159   4.937   7.166   6.281 -0.0964  0.5878 -0.0788
   21HTM   C10215160   4.889   7.091   6.177 -0.1323  0.7050 -0.1462
   21HTM   C10315161   4.754   7.125   6.140 -0.2809  0.4895  0.1893
   21HTM   C10415162   4.700   7.226   6.215 -0.3577  0.2078  0.5120
   21HTM    S1115163   4.816   7.285   6.339 -0.2481  0.1928  0.4171
   22TAL   C10515164   4.687   7.052   6.026  0.4007 -0.3672 -0.2284
   22TAL   C10615165   4.632   6.917   6.049  0.1640 -1.0465  0.4613
   22TAL   C10715166   4.545   6.864   5.935  0.2484  0.4625  0.3049
   22TAL   C10815167   4.436   6.950   5.866  0.0471  0.0774 -0.0235
   22TAL   C10915168   4.362   6.870   5.758 -0.5786 -0.2025  0.5419
   22TAL   C11015169   4.260   6.942   5.682  0.3036 -0.1509 -0.4359
   23HTM   C11115170   4.568   7.284   6.215 -0.0854 -0.3097  0.2649
   23HTM   C11215171   4.447   7.224   6.200 -0.1807 -0.2394  0.7169
   23HTM   C11315172   4.335   7.314   6.207 -0.0687 -0.0899  0.5922
   23HTM   C11415173   4.371   7.444   6.229  0.1123 -0.0469  0.0460
   23HTM    S1215174   4.550   7.462   6.241  0.1551 -0.1923 -0.3571
   24TAL   C11515175   4.191   7.274   6.176  0.2837  0.7625  0.5234
   24TAL   C11615176   4.143   7.135   6.127 -0.1486 -0.0523 -0.0387
   24TAL   C11715177   4.206   7.003   6.173  0.3418 -0.6453  0.0486
   24TAL   C11815178   4.171   6.881   6.092  0.3441 -0.3982  0.5579
   24TAL   C11915179   4.220   6.753   6.149  0.1403 -0.6089  0.1456
   24TAL   C12015180   4.130   6.707   6.261 -0.5889  0.0269  0.9997
   25HTM   C12115181   4.294   7.558   6.262  0.6148  0.3166  0.2077
   25HTM   C12215182   4.309   7.679   6.202  0.2186  0.2463 -0.0319
   25HTM   C12315183   4.248   7.788   6.275 -0.5341  0.1318 -0.4735
   25HTM   C12415184   4.188   7.749   6.391 -0.7116  0.1150 -0.5710
   25HTM    S1315185   4.203   7.571   6.417  0.0639  0.2432 -0.1088
   26TAL   C12515186   4.268   7.937   6.228  0.1977 -0.5777 -0.0123
   26TAL   C12615187   4.380   8.013   6.304 -0.2443 -0.4891 -0.6255
   26TAL   C12715188   4.500   7.947   6.362  0.0196  0.2164 -0.3714
   26TAL   C12815189   4.627   7.933   6.285 -0.0794 -0.6321  0.2977
   26TAL   C12915190   4.759   7.914   6.354  0.3402 -0.3969 -0.3618
   26TAL   C13015191   4.792   8.020   6.461 -0.3278  0.3272 -0.0078
   27HTM   C13115192   4.112   7.827   6.489  0.0475  0.1311 -0.1470
   27HTM   C13215193   4.114   7.960   6.521 -0.4039  0.1872 -0.3457
   27HTM   C13315194   4.005   7.999   6.608 -0.4792 -0.0741 -0.3195
   27HTM   C13415195   3.921   7.897   6.641 -0.0851 -0.3295 -0.1010
   27HTM    S1415196   3.973   7.742   6.565  0.4154 -0.2589  0.0907
   28TAL   C13515197   4.005   8.136   6.655 -0.1281  0.2696  0.2447
   28TAL   C13615198   4.132   8.226   6.661  0.0595  0.2900  0.1676
   28TAL   C13715199   4.094   8.354   6.729  0.0780  0.3899  0.0079
   28TAL   C13815200   4.211   8.454   6.716 -0.1889 -0.6581 -0.1454
   28TAL   C13915201   4.206   8.564   6.818 -0.0072 -0.7031 -0.4571
   28TAL   C14015202   4.299   8.680   6.774 -0.1557  0.3926  0.0526
   29HTM   C14115203   3.794   7.898   6.714 -0.2473  0.3445  0.1515
   29HTM   C14215204   3.713   8.006   6.730 -0.5865  0.1302 -0.1111
   29HTM   C14315205   3.584   7.974   6.786 -0.6886 -0.2108 -0.5345
   29HTM   C14415206   3.567   7.842   6.813 -0.4272 -0.2566 -0.5950
   29HTM    S1515207   3.714   7.746   6.769 -0.0288  0.1305 -0.1182
   30TAL   C14515208   3.490   8.093   6.803 -0.1083  0.1666 -0.5993
   30TAL   C14615209   3.402   8.115   6.680 -0.2924 -0.5692 -0.4920
   30TAL   C14715210   3.291   8.209   6.724  0.5210 -0.3951  0.1573
   30TAL   C14815211   3.187   8.242   6.618  0.0889 -0.4935 -0.7860
   30TAL   C14915212   3.062   8.321   6.680 -0.2742  0.1780  0.0721
   30TAL   C15015213   2.957   8.337   6.582  0.0143 -0.0405  0.3862
   31HTM   C15115214   3.443   7.780   6.856 -0.0806 -0.0196  0.1846
   31HTM   C15215215   3.370   7.806   6.968  0.0430 -0.2704  0.3233
   31HTM   C15315216   3.247   7.731   6.975  0.1588 -0.4549  0.4027
   31HTM   C15415217   3.226   7.649   6.869  0.1233 -0.3450  0.3247
   31HTM    S1615218   3.361   7.659   6.750 -0.0603  0.0030  0.1434
   32TAL   C15515219   3.148   7.761   7.088  0.1132  0.0241  0.0073
   32TAL   C15615220   3.054   7.658   7.149  0.5141 -0.1758 -0.0041
   32TAL   C15715221   3.132   7.534   7.205  0.0706 -0.8155 -0.4126
   32TAL   C15815222   3.056   7.415   7.256 -0.3231  0.1414 -0.5232
   32TAL   C15915223   2.949   7.363   7.171 -0.3061  0.4836  0.5256
   32TAL   C16015224   2.915   7.219   7.213  0.0764 -0.0708 -0.2173
   33HTM   C16115225   3.125   7.554   6.828  0.2389  0.1930  0.5847
   33HTM   C16215226   2.991   7.573   6.813  0.2452  0.4442  0.8504
   33HTM   C16315227   2.920   7.455   6.769 -0.0269  0.6437  0.7544
   33HTM   C16415228   3.000   7.347   6.750 -0.2407  0.5445  0.4149
   33HTM    S1715229   3.173   7.385   6.786 -0.1138  0.1886  0.1887
   34TAL   C16515230   2.773   7.469   6.751 -0.3698  0.1540  0.4456
   34TAL   C16615231   2.725   7.553   6.638  0.1367 -0.2009  0.1753
   34TAL   C16715232   2.756   7.517   6.491  0.2075  0.4360  0.3076
   34TAL   C16815233   2.733   7.632   6.384 -0.1288  0.6974 -0.2583
   34TAL   C16915234   2.799   7.606   6.246  0.4727 -0.2388  0.6177
   34TAL   C17015235   2.792   7.736   6.164 -0.2704 -0.0568  0.6212
   35HTM   C17115236   2.974   7.209   6.714 -0.1014 -0.4439 -0.2291
   35HTM   C17215237   2.871   7.149   6.648 -0.2383 -0.5853  0.1078
   35HTM   C17315238   2.882   7.006   6.641 -0.1800 -0.5887  0.2685
   35HTM   C17415239   2.993   6.956   6.702  0.0013 -0.4495  0.0542
   35HTM    S1815240   3.094   7.088   6.774  0.1134 -0.3023 -0.3706
   36TAL   C17515241   2.780   6.914   6.561  0.1172 -0.5061  0.1046
   36TAL   C17615242   2.628   6.927   6.585 -0.3724  0.1908 -0.0975
   36TAL   C17715243   2.535   6.879   6.480  0.0704  0.1593 -0.4313
   36TAL   C17815244   2.390   6.933   6.499 -0.8172 -0.3339  1.1580
   36TAL   C17915245   2.292   6.866   6.393 -0.3238 -0.0711  0.2359
   36TAL   C18015246   2.318   6.900   6.246 -0.2913 -0.2904  0.0151
   37HTM   C18115247   3.055   6.833   6.720 -0.0675  0.0380  0.4500
   37HTM   C18215248   3.019   6.735   6.809  0.2955 -0.0012  0.5555
   37HTM   C18315249   3.115   6.629   6.820  0.5705  0.2391  0.4759
   37HTM   C18415250   3.225   6.645   6.741  0.4174  0.4616  0.3099
   37HTM    S1915251   3.214   6.797   6.644 -0.0900  0.3840  0.2407
   38TAL   C18515252   3.079   6.524   6.930  0.0920 -0.6314  1.0026
   38TAL   C18615253   3.105   6.378   6.908  0.0247 -0.1258  0.2668
   38TAL   C18715254   3.001   6.315   6.811  0.6614 -0.1366  0.4560
   38TAL   C18815255   3.029   6.172   6.766  0.0743 -0.1825  0.8026
   38TAL   C18915256   2.918   6.115   6.686 -0.2401  0.6765  0.4039
   38TAL   C19015257   2.926   5.964   6.674 -0.0701 -0.0585 -0.0464
   39HTM   C19115258   3.343   6.564   6.726  0.1869  0.4743 -0.3811
   39HTM   C19215259   3.353   6.432   6.692  0.1184  0.5114 -0.5496
   39HTM   C19315260   3.484   6.377   6.715  0.0129  0.3405 -0.3574
   39HTM   C19415261   3.573   6.466   6.766  0.0010  0.1729 -0.0418
   39HTM    S2015262   3.498   6.629   6.790  0.1229  0.2178  0.0371
   40TAL   C19515263   3.525   6.235   6.686  0.0066  0.3057  0.2647
   40TAL   C19615264   3.419   6.132   6.685  0.4530 -0.3525  0.1171
   40TAL   C19715265   3.468   6.008   6.618  0.1761  0.4178 -0.2694
   40TAL   C19815266   3.388   5.878   6.618 -0.4312  0.1225 -0.6118
   40TAL   C19915267   3.253   5.880   6.563  0.1961  0.4169 -0.0290
   40TAL   C20015268   3.213   5.754   6.493 -0.5988 -0.1352  0.3904
   41HTM   C20115269   3.713   6.448   6.807  0.0764  0.2382  0.2305
   41HTM   C20215270   3.766   6.336   6.863 -0.0577  0.3431  0.5701
   41HTM   C20315271   3.897   6.356   6.918 -0.0322  0.3514  0.5064
   41HTM   C20415272   3.944   6.483   6.904  0.1210  0.2530  0.1189
   41HTM    S2115273   3.825   6.589   6.819  0.2464  0.1412 -0.1985
   42TAL   C20515274   3.972   6.235   6.982  0.1552  0.4164 -0.5302
   42TAL   C20615275   4.018   6.249   7.122  0.0185 -0.1990  0.0119
   42TAL   C20715276   4.118   6.149   7.186  0.4228 -0.0556  0.0508
   42TAL   C20815277   4.059   6.018   7.218 -0.3765  0.1289  0.4442
   42TAL   C20915278   4.150   5.914   7.275 -0.2823 -0.4340 -0.6446
   42TAL   C21015279   4.084   5.776   7.261 -0.0704 -0.3858 -0.5138
   43HTM   C21115280   4.073   6.546   6.949  0.1812  0.0893 -0.4327
   43HTM   C21215281   4.197   6.492   6.965  0.3195  0.3889 -0.4871
   43HTM   C21315282   4.291   6.582   7.025  0.0679  0.5434 -0.3207
   43HTM   C21415283   4.240   6.705   7.054 -0.2617  0.3620 -0.1394
   43HTM    S2215284   4.066   6.716   7.008 -0.2804 -0.0212 -0.1652
   44TAL   C21515285   4.436   6.536   7.037 -0.2704  0.1724  0.4070
   44TAL   C21615286   4.474   6.392   7.079 -0.3158 -0.1408  0.8714
   44TAL   C21715287   4.449   6.355   7.223  0.6428 -0.3782 -0.0860
   44TAL   C21815288   4.481   6.212   7.268  0.2097 -0.0996  0.2776
   44TAL   C21915289   4.485   6.201   7.419  0.9516  0.1005  0.4056
   44TAL   C22015290   4.348   6.177   7.482  0.0494 -0.6567 -0.1602
   45HTM   C22115291   4.303   6.815   7.120 -0.0994 -0.0446  0.1708
   45HTM   C22215292   4.423   6.821   7.184 -0.1063  0.0660  0.1748
   45HTM   C22315293   4.447   6.947   7.251 -0.0963  0.1943 -0.0706
   45HTM   C22415294   4.345   7.037   7.237 -0.0821  0.1824 -0.2617
   45HTM    S2315295   4.210   6.969   7.138 -0.0792  0.0058 -0.1458
   46TAL   C22515296   4.577   6.960   7.331  0.0179  0.0765  0.4575
   46TAL   C22615297   4.705   6.932   7.253 -0.0154 -0.7772  0.2613
   46TAL   C22715298   4.826   6.972   7.328  0.5568  0.6263 -0.8486
   46TAL   C22815299   4.952   6.938   7.251  0.5905 -0.0733  0.5102
   46TAL   C22915300   5.066   7.019   7.313  0.0733  0.0341 -0.0129
   46TAL   C23015301   5.203   7.005   7.239  0.6749 -0.3407  0.1507
   47HTM   C23115302   4.328   7.169   7.296  0.5291  0.1319 -0.0303
   47HTM   C23215303   4.209   7.235   7.295  0.4189 -0.0715 -0.1888
   47HTM   C23315304   4.214   7.365   7.355  0.0823 -0.1228 -0.0498
   47HTM   C23415305   4.337   7.399   7.403 -0.0645  0.0418  0.2146
   47HTM    S2415306   4.457   7.268   7.374  0.2138  0.2754  0.3099
   48TAL   C23515307   4.081   7.444   7.375 -0.7085  0.2288 -0.2620
   48TAL   C23615308   4.095   7.575   7.450  0.6941  0.0839 -0.1482
   48TAL   C23715309   3.968   7.653   7.424 -0.3906 -0.6800 -0.1386
   48TAL   C23815310   3.973   7.794   7.470 -0.3484 -1.1295  0.3149
   48TAL   C23915311   3.930   7.825   7.609  0.4626 -0.2051  0.7769
   48TAL   C24015312   3.914   7.975   7.633 -0.2296  0.3432 -0.2883
    1HTM     C115313   6.044   8.995   7.352  0.3565  0.5270  0.0031
    1HTM     C215314   5.963   8.890   7.385  0.3767  0.3600 -0.4706
    1HTM     C315315   6.005   8.820   7.503  0.2856 -0.0529 -0.6843
    1HTM     C415316   6.118   8.870   7.560  0.1967 -0.2013 -0.3730
    1HTM     S115317   6.181   9.013   7.469  0.2205  0.1717  0.2175
    2TAL     C515318   5.911   8.712   7.566 -0.0653  0.0343  0.1114
    2TAL     C615319   5.766   8.744   7.595 -0.7124  0.0261 -0.4538
    2TAL     C715320   5.693   8.623   7.661  0.0720  0.1502  0.0653
    2TAL     C815321   5.568   8.667   7.746  0.0491 -0.4431  0.8194
    2TAL     C915322   5.485   8.559   7.804  0.8655  0.2502  0.3226
    2TAL    C1015323   5.354   8.607   7.851  0.3833 -0.0466  0.3223
    3HTM    C1115324   6.186   8.827   7.677 -0.5092 -0.3509 -0.1281
    3HTM    C1215325   6.240   8.915   7.766 -0.5636 -0.2151 -0.2291
    3HTM    C1315326   6.288   8.853   7.887 -0.1609 -0.1016 -0.3276
    3HTM    C1415327   6.270   8.718   7.891  0.2007 -0.1496 -0.3014
    3HTM     S215328   6.191   8.658   7.741  0.0591 -0.3449 -0.1496
    4TAL    C1515329   6.339   8.933   8.010  0.5450  0.1440  0.6041
    4TAL    C1615330   6.392   9.075   8.001 -0.1522 -0.2405 -0.5710
    4TAL    C1715331   6.508   9.094   7.901  0.2796 -0.0384 -0.4419
    4TAL    C1815332   6.581   9.225   7.898 -0.1807  0.2083 -0.4286
    4TAL    C1915333   6.653   9.266   8.023 -0.2209 -0.5682 -0.0836
    4TAL    C2015334   6.712   9.400   8.018  0.6724  0.3803  0.3294
    5HTM    C2115335   6.298   8.618   7.995 -0.2481 -0.0683 -0.0553
    5HTM    C2215336   6.266   8.614   8.128 -0.4582 -0.3500 -0.1149
    5HTM    C2315337   6.332   8.509   8.200 -0.3631 -0.3319 -0.1760
    5HTM    C2415338   6.415   8.433   8.122 -0.0802 -0.0359 -0.1627
    5HTM     S315339   6.416   8.489   7.951  0.0894  0.2440 -0.0724
    6TAL    C2515340   6.293   8.484   8.342  0.3256 -0.7026 -0.7453
    6TAL    C2615341   6.327   8.583   8.450  0.5396  0.0475  0.2693
    6TAL    C2715342   6.466   8.589   8.510  0.1990  0.5779 -0.3992
    6TAL    C2815343   6.583   8.661   8.447 -0.5480 -0.3721  0.4752
    6TAL    C2915344   6.575   8.810   8.408  0.5924 -0.4464 -0.0993
    6TAL    C3015345   6.704   8.869   8.360 -0.3915  0.0911  0.2935
    7HTM    C3115346   6.495   8.319   8.151 -0.3080 -0.2308  0.0710
    7HTM    C3215347   6.512   8.208   8.073 -0.6790 -0.3037  0.0949
    7HTM    C3315348   6.602   8.111   8.129 -0.4292 -0.2618 -0.2332
    7HTM    C3415349   6.655   8.148   8.250  0.1319 -0.1559 -0.5069
    7HTM     S415350   6.594   8.309   8.302  0.3905 -0.1014 -0.3717
    8TAL    C3515351   6.643   7.990   8.045  0.2135  1.0916 -0.8434
    8TAL    C3615352   6.558   7.948   7.926 -0.6464  0.1884 -0.0794
    8TAL    C3715353   6.612   7.838   7.821  0.0672  0.0764  0.8639
    8TAL    C3815354   6.743   7.870   7.748  0.3701 -0.0903 -0.1290
    8TAL    C3915355   6.872   7.864   7.832  0.2146 -0.5039  0.2020
    8TAL    C4015356   6.974   7.965   7.786 -0.2587  0.1394 -0.1052
    9HTM    C4115357   6.771   8.108   8.329 -0.2165  0.1232  0.3906
    9HTM    C4215358   6.833   8.186   8.421 -0.4115  0.0072  0.6232
    9HTM    C4315359   6.937   8.119   8.494 -0.3788 -0.0067  0.5636
    9HTM    C4415360   6.954   7.988   8.457 -0.1586  0.0996  0.2854
    9HTM     S515361   6.839   7.941   8.326  0.0261  0.2260  0.0751
   10TAL    C4515362   7.011   8.184   8.612 -0.5797  0.6422 -0.6312
   10TAL    C4615363   6.943   8.303   8.678  0.8872  0.1617  0.3524
   10TAL    C4715364   7.001   8.362   8.808 -0.4822  0.0233 -0.0964
   10TAL    C4815365   6.925   8.484   8.851 -0.4431  0.1469 -1.1973
   10TAL    C4915366   6.941   8.539   8.988 -0.1484  0.5233 -0.3162
   10TAL    C5015367   6.883   8.673   8.992  0.4402 -0.1041  0.2523
   11HTM    C5115368   7.036   7.891   8.519  0.1947  0.0263 -0.5598
   11HTM    C5215369   7.167   7.905   8.556  0.1867  0.1421 -0.5755
   11HTM    C5315370   7.228   7.782   8.601  0.2716  0.2177 -0.4859
   11HTM    C5415371   7.144   7.675   8.600  0.3437  0.1593 -0.4017
   11HTM     S615372   6.980   7.721   8.540  0.3106  0.0031 -0.4294
   12TAL    C5515373   7.365   7.776   8.658 -0.0082  0.4060  0.3384
   12TAL    C5615374   7.399   7.903   8.741  0.1181 -0.5001 -0.1010
   12TAL    C5715375   7.545   7.911   8.782  0.7664 -0.4353 -0.6365
   12TAL    C5815376   7.572   8.025   8.882  0.1066 -0.1053 -0.4089
   12TAL    C5915377   7.714   8.023   8.944 -0.0089 -0.3402 -0.1977
   12TAL    C6015378   7.747   8.135   9.048 -0.0686  0.2662  0.5599
   13HTM    C6115379   7.153   7.532   8.626  0.1131  0.3959 -0.3627
   13HTM    C6215380   7.264   7.454   8.634  0.2933  0.6487 -0.3638
   13HTM    C6315381   7.235   7.314   8.648  0.6096  0.6194  0.0196
   13HTM    C6415382   7.101   7.285   8.650  0.6712  0.3441  0.3130
   13HTM     S715383   7.001   7.434   8.635  0.3317  0.0986  0.1255
   14TAL    C6515384   7.349   7.210   8.660 -1.0133 -0.1898 -0.5202
   14TAL    C6615385   7.390   7.157   8.519 -0.0764 -0.1818  0.6629
   14TAL    C6715386   7.520   7.076   8.527 -0.3630 -0.3609 -0.4556
   14TAL    C6815387   7.580   7.022   8.399  0.2982  0.0032 -0.3540
   14TAL    C6915388   7.699   6.933   8.424 -0.1492 -0.1344 -0.0946
   14TAL    C7015389   7.827   7.013   8.437 -0.3177  0.0848 -0.3649
   15HTM    C7115390   7.027   7.157   8.678  0.1109 -0.3648  0.4271
   15HTM    C7215391   6.893   7.151   8.702  0.0837 -0.3567  0.2775
   15HTM    C7315392   6.845   7.018   8.728  0.0086 -0.3831  0.0095
   15HTM    C7415393   6.943   6.923   8.724 -0.0219 -0.4119 -0.0449
   15HTM     S815394   7.104   6.994   8.687  0.0431 -0.4073  0.2391
   16TAL    C7515395   6.698   6.995   8.755 -0.5071  0.1536  0.2434
   16TAL    C7615396   6.613   7.018   8.630  0.5407  0.4562 -0.0637
   16TAL    C7715397   6.460   7.019   8.663 -0.1442 -0.4360 -0.5993
   16TAL    C7815398   6.413   7.116   8.775 -0.5753  0.6555 -0.0126
   16TAL    C7915399   6.459   7.259   8.768 -0.4094 -0.3053 -0.0223
   16TAL    C8015400   6.405   7.346   8.658  0.3195  0.1901 -0.4215
   17HTM    C8115401   6.944   6.779   8.749 -0.1258  0.0543 -0.0738
   17HTM    C8215402   7.044   6.702   8.800 -0.1147  0.0343 -0.1259
   17HTM    C8315403   7.009   6.563   8.812 -0.1421  0.0443 -0.0911
   17HTM    C8415404   6.882   6.534   8.771 -0.1740  0.0719 -0.0121
   17HTM     S915405   6.796   6.682   8.712 -0.1721  0.0876  0.0234
   18TAL    C8515406   7.125   6.471   8.864  0.8443  0.8958  0.5076
   18TAL    C8615407   7.196   6.390   8.758 -0.2211  0.0350 -0.6692
   18TAL    C8715408   7.253   6.264   8.814  0.3495  0.8500  0.3702
   18TAL    C8815409   7.350   6.200   8.711  0.1173 -0.2942  0.0396
   18TAL    C8915410   7.397   6.062   8.746 -0.5196  0.5434  0.3440
   18TAL    C9015411   7.296   5.954   8.777  0.4882 -0.5320 -0.1554
   19HTM    C9115412   6.809   6.405   8.767 -0.0949  0.4758 -0.5959
   19HTM    C9215413   6.859   6.279   8.775  0.0718  0.5407 -0.5975
   19HTM    C9315414   6.758   6.177   8.784  0.2136  0.4301 -0.2546
   19HTM    C9415415   6.631   6.226   8.784  0.1548  0.2804  0.0079
   19HTM    S1015416   6.629   6.406   8.772 -0.0859  0.2675 -0.1586
   20TAL    C9515417   6.782   6.027   8.780  0.0588  1.4868 -0.2001
   20TAL    C9615418   6.894   5.959   8.857 -0.1125 -0.3800  0.0695
   20TAL    C9715419   6.893   5.808   8.826  0.0793  0.0963  0.8205
   20TAL    C9815420   7.011   5.721   8.882 -0.0863 -0.0582 -0.1072
   20TAL    C9915421   7.020   5.726   9.038  0.4114 -0.1404  1.1485
   20TAL   C10015422   7.134   5.632   9.083 -0.5362  0.8864  0.2716
   21HTM   C10115423   6.493   6.164   8.786  0.1176 -0.2362 -0.0093
   21HTM   C10215424   6.380   6.229   8.747  0.0360 -0.4270 -0.0916
   21HTM   C10315425   6.259   6.153   8.769  0.1245 -0.5214  0.0691
   21HTM   C10415426   6.281   6.031   8.825  0.2733 -0.4024  0.2734
   21HTM    S1115427   6.457   6.001   8.854  0.3138 -0.1603  0.2802
   22TAL   C10515428   6.130   6.217   8.729  0.3609 -0.8850 -1.0522
   22TAL   C10615429   6.116   6.374   8.716  0.1287 -0.3543 -0.6952
   22TAL   C10715430   5.976   6.404   8.669  0.0582 -0.3681 -0.2354
   22TAL   C10815431   5.967   6.547   8.617  0.6130 -0.5676  0.2648
   22TAL   C10915432   5.821   6.591   8.594  0.5186 -0.1708  0.5303
   22TAL   C11015433   5.739   6.628   8.716 -0.0127  0.0420  0.0621
   23HTM   C11115434   6.188   5.924   8.858 -0.1634  0.0100  0.0419
   23HTM   C11215435   6.062   5.906   8.810 -0.0556 -0.0958 -0.2003
   23HTM   C11315436   6.004   5.779   8.846 -0.0386 -0.1233 -0.2694
   23HTM   C11415437   6.086   5.701   8.922 -0.1333 -0.0382 -0.0790
   23HTM    S1215438   6.244   5.782   8.954 -0.2525  0.0842  0.2033
   24TAL   C11515439   5.858   5.748   8.809 -0.4260  0.3802  0.2522
   24TAL   C11615440   5.741   5.811   8.879 -0.1064 -0.4199 -0.3719
   24TAL   C11715441   5.705   5.745   9.011  0.0151 -0.2751 -0.5646
   24TAL   C11815442   5.800   5.757   9.125  0.2246  0.3894  0.4330
   24TAL   C11915443   5.791   5.676   9.255  0.1110 -0.0128  0.3053
   24TAL   C12015444   5.682   5.718   9.343  0.9083  0.4520 -0.5374
   25HTM   C12115445   6.060   5.562   8.962 -0.7727  0.1076 -0.1188
   25HTM   C12215446   6.063   5.503   9.085 -0.6478  0.1662 -0.0925
   25HTM   C12315447   6.020   5.365   9.084 -0.1121 -0.0033 -0.0753
   25HTM   C12415448   5.985   5.320   8.960  0.1717 -0.1908 -0.0885
   25HTM    S1315449   6.003   5.448   8.834 -0.2189 -0.1678 -0.1234
   26TAL   C12515450   5.994   5.288   9.205 -0.1677 -0.1982 -0.1393
   26TAL   C12615451   5.882   5.344   9.286 -0.0712  0.1906 -0.8459
   26TAL   C12715452   5.861   5.259   9.407  0.2536 -0.1992 -0.3399
   26TAL   C12815453   5.730   5.295   9.480  0.2716 -0.1576  0.0969
   26TAL   C12915454   5.700   5.198   9.589  0.6945  0.2727 -0.9125
   26TAL   C13015455   5.572   5.221   9.675  0.3785 -0.9129 -0.2634
   27HTM   C13115456   5.963   5.186   8.912  0.0370  0.1734 -0.0581
   27HTM   C13215457   6.008   5.136   8.793 -0.3614  0.2801 -0.2594
   27HTM   C13315458   5.978   4.996   8.774 -0.3810  0.2842 -0.2594
   27HTM   C13415459   5.909   4.940   8.878  0.0027  0.1815 -0.0594
   27HTM    S1415460   5.877   5.060   9.008  0.4217  0.0699  0.1478
   28TAL   C13515461   6.018   4.924   8.643 -0.4778  0.4096 -0.1158
   28TAL   C13615462   6.166   4.944   8.602  0.6836 -0.2691  0.2533
   28TAL   C13715463   6.193   4.923   8.449  0.0838  0.4751  0.8915
   28TAL   C13815464   6.227   4.779   8.401  0.5177 -0.4051  0.1204
   28TAL   C13915465   6.125   4.666   8.425  0.3144 -0.3071  0.3193
   28TAL   C14015466   5.993   4.683   8.346  0.0052 -0.2918 -0.1225
   29HTM   C14115467   5.854   4.806   8.891  0.2102  0.2087 -0.1216
   29HTM   C14215468   5.749   4.767   8.968  0.1004  0.2108 -0.2708
   29HTM   C14315469   5.714   4.628   8.951 -0.1035  0.2997 -0.5817
   29HTM   C14415470   5.792   4.562   8.861 -0.1489  0.3658 -0.6701
   29HTM    S1515471   5.918   4.671   8.790  0.0637  0.3201 -0.3646
   30TAL   C14515472   5.587   4.572   9.022 -0.6786  0.7107 -0.0978
   30TAL   C14615473   5.457   4.629   8.966  0.3474  0.0259 -0.1475
   30TAL   C14715474   5.333   4.553   9.003 -0.0835 -0.4779  0.2778
   30TAL   C14815475   5.294   4.566   9.151 -0.1534 -0.2057 -0.0119
   30TAL   C14915476   5.175   4.478   9.196 -0.0647 -0.6097 -0.2189
   30TAL   C15015477   5.137   4.506   9.342 -0.3087 -0.0068  0.2742
   31HTM   C15115478   5.791   4.422   8.820 -0.3291 -0.0121 -0.5327
   31HTM   C15215479   5.685   4.336   8.815 -0.3033 -0.0288 -0.8144
   31HTM   C15315480   5.720   4.202   8.776 -0.1252 -0.1044 -0.4039
   31HTM   C15415481   5.853   4.186   8.751 -0.0149 -0.1462  0.1898
   31HTM    S1615482   5.945   4.339   8.775 -0.1285 -0.0919  0.2787
   32TAL   C15515483   5.621   4.085   8.759 -0.1651  0.4583 -0.4010
   32TAL   C15615484   5.480   4.115   8.754 -0.2492 -0.1039  0.1526
   32TAL   C15715485   5.410   3.983   8.750 -0.1811  0.2138 -0.4443
   32TAL   C15815486   5.265   4.014   8.721 -0.2790  0.5098 -0.1095
   32TAL   C15915487   5.172   3.904   8.670  0.1728 -0.7318 -0.5092
   32TAL   C16015488   5.027   3.950   8.647  0.1837  0.3250  0.0726
   33HTM   C16115489   5.936   4.075   8.704 -0.1686  0.2435 -0.1132
   33HTM   C16215490   6.063   4.066   8.751 -0.1247  0.3951 -0.2027
   33HTM   C16315491   6.122   3.936   8.734  0.0770  0.5105 -0.3953
   33HTM   C16415492   6.040   3.846   8.675  0.1872  0.4470 -0.4518
   33HTM    S1715493   5.879   3.918   8.635  0.0434  0.2349 -0.2655
   34TAL   C16515494   6.270   3.914   8.772  0.3171  0.0832 -0.0468
   34TAL   C16615495   6.365   3.992   8.683 -0.4111 -0.1412  0.1666
   34TAL   C16715496   6.389   4.137   8.702 -0.1503 -0.1928 -0.0750
   34TAL   C16815497   6.485   4.199   8.600 -0.2945  0.4286  0.0220
   34TAL   C16915498   6.528   4.337   8.634  0.1378  0.0192  0.1131
   34TAL   C17015499   6.663   4.377   8.575  0.4073 -0.3241 -0.3110
   35HTM   C17115500   6.040   3.703   8.653  0.2389 -0.1603  0.4366
   35HTM   C17215501   5.936   3.625   8.613  0.1867 -0.0589  0.3757
   35HTM   C17315502   5.969   3.486   8.601  0.1383 -0.0463  0.0968
   35HTM   C17415503   6.099   3.457   8.631  0.1536 -0.1380 -0.0550
   35HTM    S1815504   6.190   3.605   8.678  0.2311 -0.2481  0.1436
   36TAL   C17515505   5.850   3.403   8.551  0.4272 -0.0631 -0.2816
   36TAL   C17615506   5.826   3.246   8.570 -0.1494 -1.4317  0.7280
   36TAL   C17715507   5.727   3.196   8.470  0.2838  0.1335 -0.0810
   36TAL   C17815508   5.694   3.055   8.487 -0.1980  0.7679  0.0802
   36TAL   C17915509   5.594   3.013   8.381  0.3747 -0.5575  0.1889
   36TAL   C18015510   5.553   2.867   8.406  0.1773  0.0848 -0.3801
   37HTM   C18115511   6.168   3.330   8.637 -0.1336 -0.1662  0.1572
   37HTM   C18215512   6.266   3.288   8.722 -0.3464 -0.1559  0.4067
   37HTM   C18315513   6.310   3.153   8.699 -0.0463 -0.0421  0.3114
   37HTM   C18415514   6.246   3.092   8.595  0.3955  0.0346 -0.0115
   37HTM    S1915515   6.124   3.201   8.519  0.4674 -0.0318 -0.2204
   38TAL   C18515516   6.430   3.101   8.781 -0.9117  0.0894 -0.1557
   38TAL   C18615517   6.434   2.960   8.837 -0.5370 -0.5504 -0.3911
   38TAL   C18715518   6.560   2.922   8.923  0.0826 -0.1791  0.5471
   38TAL   C18815519   6.567   2.775   8.968 -0.3093  0.2270 -0.6095
   38TAL   C18915520   6.591   2.665   8.866 -0.1244 -0.0263  0.0876
   38TAL   C19015521   6.621   2.527   8.927  0.5785 -0.6284 -1.0794
   39HTM   C19115522   6.240   2.958   8.545 -0.1186  0.2769 -0.1763
   39HTM   C19215523   6.341   2.880   8.495  0.0398  0.5589 -0.2980
   39HTM   C19315524   6.294   2.765   8.421  0.2728  0.4871 -0.3338
   39HTM   C19415525   6.158   2.755   8.415  0.2914  0.1507 -0.2393
   39HTM    S2015526   6.078   2.891   8.502  0.0142 -0.1039 -0.0963
   40TAL   C19515527   6.396   2.685   8.355  0.0633  0.7047  0.4510
   40TAL   C19615528   6.488   2.595   8.437  0.8381  0.2290  0.7369
   40TAL   C19715529   6.599   2.520   8.357  0.2248  0.4600  0.2987
   40TAL   C19815530   6.731   2.512   8.436  0.8101  0.5367 -0.2383
   40TAL   C19915531   6.722   2.442   8.575 -0.5195 -0.1270  0.3002
   40TAL   C20015532   6.855   2.447   8.650 -0.0646 -0.3030  0.5061
   41HTM   C20115533   6.065   2.659   8.356 -0.0238 -0.4961  0.7322
   41HTM   C20215534   6.086   2.533   8.310 -0.2837 -0.4709  0.5407
   41HTM   C20315535   5.970   2.472   8.252 -0.2863  0.0359  0.0100
   41HTM   C20415536   5.859   2.552   8.253 -0.0290  0.3969 -0.2028
   41HTM    S2115537   5.895   2.712   8.329  0.2396  0.1230  0.2538
   42TAL   C20515538   5.983   2.330   8.194  0.4231 -0.2381  0.0419
   42TAL   C20615539   5.978   2.209   8.290  0.2711  0.5084  0.2614
   42TAL   C20715540   5.902   2.225   8.415 -0.5801 -0.1855 -0.7925
   42TAL   C20815541   5.918   2.127   8.541 -0.0650 -0.8692  0.3895
   42TAL   C20915542   6.050   2.060   8.591  0.1093  0.2195 -0.2825
   42TAL   C21015543   6.110   1.963   8.488 -0.7471 -0.0813 -0.3281
   43HTM   C21115544   5.729   2.526   8.196  0.0508 -0.0272  0.1648
   43HTM   C21215545   5.662   2.629   8.139  0.0186  0.0114  0.2747
   43HTM   C21315546   5.555   2.588   8.052 -0.0319  0.0712  0.3076
   43HTM   C21415547   5.541   2.453   8.042 -0.0384  0.0778  0.2239
   43HTM    S2215548   5.663   2.366   8.143  0.0190  0.0088  0.0955
   44TAL   C21515549   5.471   2.685   7.968  0.1591  0.2272 -0.2531
   44TAL   C21615550   5.455   2.836   7.991 -0.0130 -0.0335  0.3823
   44TAL   C21715551   5.580   2.922   7.964 -0.0122  0.0355 -0.0279
   44TAL   C21815552   5.592   2.960   7.825  0.3852 -0.4419  0.2836
   44TAL   C21915553   5.722   3.045   7.807 -0.1350  0.6271  0.4340
   44TAL   C22015554   5.742   3.082   7.664  0.1773  0.2424 -0.5912
   45HTM   C22115555   5.442   2.371   7.984 -0.1315 -0.4443 -0.1642
   45HTM   C22215556   5.350   2.394   7.886 -0.3712 -0.7451 -0.0110
   45HTM   C22315557   5.254   2.287   7.871 -0.3767 -0.8180  0.5121
   45HTM   C22415558   5.273   2.184   7.957 -0.1411 -0.5728  0.7572
   45HTM    S2315559   5.415   2.212   8.065  0.1079 -0.2281  0.3442
   46TAL   C22515560   5.134   2.286   7.780 -0.1587 -0.7046  0.4393
   46TAL   C22615561   5.040   2.409   7.782  0.3602 -0.0662 -0.0214
   46TAL   C22715562   4.967   2.433   7.916  0.2354 -0.2134  0.4303
   46TAL   C22815563   4.871   2.554   7.922  0.4230  0.0523 -0.1864
   46TAL   C22915564   4.913   2.694   7.869 -0.1009  0.0908 -0.3021
   46TAL   C23015565   5.034   2.761   7.934  0.4469  0.2621 -0.8609
   47HTM   C23115566   5.187   2.072   7.974 -0.2791 -0.1401 -0.3473
   47HTM   C23215567   5.159   1.965   7.895 -0.1249 -0.2725 -0.2244
   47HTM   C23315568   5.080   1.863   7.960  0.1471 -0.3825 -0.0603
   47HTM   C23415569   5.047   1.893   8.089  0.2005 -0.3341 -0.0580
   47HTM    S2415570   5.115   2.053   8.139 -0.0910 -0.1440 -0.2652
   48TAL   C23515571   5.038   1.734   7.886  0.5425 -0.0793 -0.6263
   48TAL   C23615572   5.079   1.600   7.941  0.7155 -0.1316  0.0999
   48TAL   C23715573   5.225   1.571   7.976 -0.3196  0.0131 -0.1114
   48TAL   C23815574   5.344   1.624   7.888 -0.2620  0.1627 -1.3012
   48TAL   C23915575   5.475   1.620   7.976  0.6451  0.5201 -0.1648
   48TAL   C24015576   5.534   1.478   7.977 -0.3680 -0.3286  0.1661
    1HTM     C115577   8.685   2.518   2.117 -0.7932  0.3823  0.6558
    1HTM     C215578   8.801   2.512   2.189 -0.7958  0.2663  0.6497
    1HTM     C315579   8.882   2.631   2.179 -0.3939 -0.0379  0.1690
    1HTM     C415580   8.827   2.728   2.101 -0.0847 -0.1539 -0.1915
    1HTM     S115581   8.669   2.676   2.032 -0.2787  0.1142  0.0501
    2TAL     C515582   9.016   2.642   2.253 -0.4090 -0.4619 -0.4565
    2TAL     C615583   9.115   2.537   2.210  0.3748 -0.7219 -0.1995
    2TAL     C715584   9.242   2.537   2.284  0.5136  0.4687  0.2542
    2TAL     C815585   9.322   2.666   2.298 -0.3626 -0.3586 -0.6340
    2TAL     C915586   9.370   2.739   2.169 -0.1873 -0.0807 -0.9009
    2TAL    C1015587   9.465   2.678   2.077  0.7248 -0.0087  0.0755
    3HTM    C1115588   8.866   2.867   2.078  0.4387 -0.1079  0.1751
    3HTM    C1215589   8.789   2.979   2.080  0.2832 -0.2218  0.8503
    3HTM    C1315590   8.865   3.102   2.076  0.0992 -0.0962  1.1685
    3HTM    C1415591   8.999   3.083   2.071  0.1145  0.1135  0.7359
    3HTM     S215592   9.042   2.907   2.071  0.3635  0.1690 -0.1136
    4TAL    C1515593   8.797   3.239   2.069  0.9893  0.1711  0.3741
    4TAL    C1615594   8.681   3.243   1.962  0.0393 -0.2776  0.0666
    4TAL    C1715595   8.631   3.382   1.922 -0.6194  0.2705  0.4111
    4TAL    C1815596   8.546   3.445   2.026 -0.7328  0.2771  0.6075
    4TAL    C1915597   8.558   3.593   2.031 -0.4047  0.4213  0.0078
    4TAL    C2015598   8.483   3.653   2.150 -0.3871 -0.2635  0.3363
    5HTM    C2115599   9.115   3.172   2.081 -0.1368  0.0074 -0.3817
    5HTM    C2215600   9.244   3.136   2.104 -0.1508 -0.2186 -0.6515
    5HTM    C2315601   9.335   3.248   2.111 -0.0194 -0.3425 -0.3605
    5HTM    C2415602   9.275   3.369   2.093  0.0948 -0.2109  0.1310
    5HTM     S315603   9.098   3.351   2.066  0.0448  0.0818  0.2654
    6TAL    C2515604   9.480   3.228   2.136 -0.0469  0.2064 -0.2005
    6TAL    C2615605   9.508   3.140   2.248 -0.2481  0.0230  0.0174
    6TAL    C2715606   9.656   3.108   2.279  0.0279 -0.1971  0.5350
    6TAL    C2815607   9.727   3.016   2.177  0.6323 -0.2397  0.2701
    6TAL    C2915608   9.870   2.984   2.206 -0.6437  0.3652  0.0361
    6TAL    C3015609   9.908   2.835   2.187 -0.5987 -0.4600 -0.6725
    7HTM    C3115610   9.321   3.507   2.091  0.2838 -0.1301 -0.0660
    7HTM    C3215611   9.242   3.613   2.060  0.1099 -0.1403  0.3301
    7HTM    C3315612   9.307   3.741   2.077 -0.0543 -0.1020  0.6762
    7HTM    C3415613   9.435   3.731   2.121 -0.0056 -0.0625  0.5439
    7HTM     S415614   9.485   3.560   2.145  0.2535 -0.0709 -0.0324
    8TAL    C3515615   9.230   3.865   2.061  0.3637  0.0079  0.0581
    8TAL    C3615616   9.154   3.914   2.181  0.6586  0.4284 -0.1169
    8TAL    C3715617   9.144   4.068   2.167 -0.2311 -0.1033 -0.0841
    8TAL    C3815618   9.087   4.159   2.279 -0.0242 -0.3216  0.0750
    8TAL    C3915619   9.140   4.147   2.424 -0.5037  0.6677  0.0898
    8TAL    C4015620   9.084   4.244   2.529  0.0219  0.1820 -0.1553
    9HTM    C4115621   9.522   3.837   2.163  0.2468  0.1224  0.0950
    9HTM    C4215622   9.604   3.913   2.084  0.4008  0.1335  0.2640
    9HTM    C4315623   9.653   4.031   2.149  0.3978  0.0448  0.4283
    9HTM    C4415624   9.610   4.046   2.278  0.2414 -0.0337  0.3847
    9HTM     S515625   9.502   3.910   2.327  0.0847 -0.0020  0.1307
   10TAL    C4515626   9.742   4.132   2.075  0.3320  0.4341 -0.3699
   10TAL    C4615627   9.870   4.082   2.023 -0.5665  0.5265  0.3253
   10TAL    C4715628   9.974   4.047   2.133  0.4522 -0.0152  0.2495
   10TAL    C4815629  10.117   4.030   2.085 -0.8470 -0.6965  0.4289
   10TAL    C4915630  10.173   3.901   2.021  0.9264 -0.7043 -0.3371
   10TAL    C5015631  10.315   3.912   1.980  0.4843  0.0274 -0.2565
   11HTM    C5115632   9.635   4.154   2.373 -0.1066  0.1189 -0.3022
   11HTM    C5215633   9.633   4.143   2.509  0.1445  0.0103 -0.3072
   11HTM    C5315634   9.652   4.268   2.578  0.5253 -0.0834 -0.2409
   11HTM    C5415635   9.669   4.375   2.494  0.5645 -0.0458 -0.1853
   11HTM     S615636   9.661   4.324   2.321  0.1200  0.1119 -0.2129
   12TAL    C5515637   9.652   4.287   2.728  0.1016  0.1256  0.5352
   12TAL    C5615638   9.530   4.247   2.813  0.3564  0.1123 -0.0523
   12TAL    C5715639   9.387   4.303   2.783  0.1700  0.2142 -0.1176
   12TAL    C5815640   9.387   4.455   2.780 -0.2661 -0.0261  0.9322
   12TAL    C5915641   9.255   4.499   2.734  0.1813 -0.4839 -0.1379
   12TAL    C6015642   9.257   4.648   2.725 -0.0013  0.4009 -0.5992
   13HTM    C6115643   9.691   4.516   2.507 -0.0048 -0.0389 -0.2428
   13HTM    C6215644   9.812   4.578   2.493  0.0162 -0.1373 -0.4939
   13HTM    C6315645   9.803   4.722   2.490  0.1356 -0.1283 -0.3933
   13HTM    C6415646   9.676   4.769   2.502  0.2057 -0.0229 -0.0654
   13HTM     S715647   9.556   4.635   2.519  0.1257  0.0735  0.1430
   14TAL    C6515648   9.927   4.808   2.479 -0.1618 -0.4907  0.2363
   14TAL    C6615649  10.045   4.744   2.401  0.5489 -0.1711  0.0450
   14TAL    C6715650  10.174   4.817   2.410 -0.0771 -0.3514  0.0557
   14TAL    C6815651  10.288   4.726   2.389 -0.1587  0.2910 -0.2894
   14TAL    C6915652  10.420   4.800   2.354 -0.2325  0.8230  0.9144
   14TAL    C7015653  10.537   4.699   2.339  0.0001 -0.2548  0.1779
   15HTM    C7115654   9.627   4.904   2.507  0.3056  0.0177  0.9609
   15HTM    C7215655   9.496   4.941   2.509  0.2918 -0.0262  0.8652
   15HTM    C7315656   9.476   5.083   2.515  0.2383  0.0179 -0.1564
   15HTM    C7415657   9.592   5.155   2.518  0.2112  0.0952 -0.8400
   15HTM     S815658   9.736   5.047   2.513  0.2516  0.1187 -0.2414
   16TAL    C7515659   9.338   5.134   2.530 -0.5085 -0.2101  0.5553
   16TAL    C7615660   9.264   5.134   2.660  0.7450  0.0523 -0.6411
   16TAL    C7715661   9.115   5.176   2.650 -0.1364  0.6041 -0.4378
   16TAL    C7815662   9.079   5.312   2.598  0.3883 -0.9439  0.3872
   16TAL    C7915663   9.161   5.436   2.645  0.2737 -0.9884 -0.0761
   16TAL    C8015664   9.110   5.569   2.583 -0.1412  0.2500  0.1598
   17HTM    C8115665   9.622   5.300   2.516  0.2995 -0.1187  0.0162
   17HTM    C8215666   9.718   5.362   2.442  0.4818 -0.1004  0.2693
   17HTM    C8315667   9.724   5.504   2.463  0.4607 -0.1118  0.3535
   17HTM    C8415668   9.632   5.551   2.553  0.2624 -0.1388  0.1646
   17HTM     S915669   9.530   5.417   2.618  0.0855 -0.1519 -0.1368
   18TAL    C8515670   9.828   5.581   2.384 -0.1975  0.2752 -0.0382
   18TAL    C8615671   9.772   5.675   2.278 -0.7844  0.0010  0.3277
   18TAL    C8715672   9.876   5.745   2.192 -0.2414  0.0765  0.0878
   18TAL    C8815673   9.953   5.852   2.258 -0.1804 -0.4548  0.3998
   18TAL    C8915674  10.043   5.937   2.171  0.3052 -0.3416  0.2444
   18TAL    C9015675  10.166   5.875   2.103  0.0748 -0.1856  0.3464
   19HTM    C9115676   9.606   5.687   2.602  0.1750  0.2892 -0.2119
   19HTM    C9215677   9.685   5.796   2.578 -0.0377  0.4156 -0.3388
   19HTM    C9315678   9.633   5.918   2.633 -0.2811  0.3800 -0.4870
   19HTM    C9415679   9.515   5.903   2.699 -0.2541  0.2262 -0.4731
   19HTM    S1015680   9.459   5.732   2.697  0.0835  0.1139 -0.2701
   20TAL    C9515681   9.722   6.042   2.613  0.2179 -0.1470 -0.0298
   20TAL    C9615682   9.695   6.087   2.469 -0.3936 -0.5768 -0.0632
   20TAL    C9715683   9.760   6.213   2.408 -0.9188  0.0963  0.0718
   20TAL    C9815684   9.703   6.346   2.464 -0.5757  0.2710 -0.5943
   20TAL    C9915685   9.555   6.380   2.447  0.2432 -0.1122  0.2188
   20TAL   C10015686   9.484   6.368   2.309  0.3336 -0.7842  0.0271
   21HTM   C10115687   9.425   6.007   2.754 -0.0407 -0.0435  0.0975
   21HTM   C10215688   9.303   5.973   2.805 -0.0936  0.0160  0.0092
   21HTM   C10315689   9.229   6.086   2.857 -0.0454  0.0410  0.0236
   21HTM   C10415690   9.294   6.205   2.846  0.0442  0.0010  0.1229
   21HTM    S1115691   9.456   6.184   2.768  0.0750 -0.0724  0.2064
   22TAL   C10515692   9.098   6.068   2.937  0.0302 -0.1705  0.3481
   22TAL   C10615693   9.062   5.925   2.984 -0.8363 -0.7298 -0.3220
   22TAL   C10715694   8.925   5.905   3.039  0.1974  0.3521 -0.6836
   22TAL   C10815695   8.894   5.770   3.109 -0.5182 -0.2240  0.4465
   22TAL   C10915696   8.962   5.784   3.245  0.4290 -0.8106  0.6452
   22TAL   C11015697   8.934   5.660   3.332 -0.1692  0.5864  0.6509
   23HTM   C11115698   9.260   6.340   2.883  0.0136  0.0304 -0.2495
   23HTM   C11215699   9.133   6.390   2.886 -0.0725 -0.2129  0.3562
   23HTM   C11315700   9.127   6.532   2.908 -0.2543 -0.2735  0.6971
   23HTM   C11415701   9.249   6.591   2.922 -0.3070 -0.0756  0.3515
   23HTM    S1215702   9.383   6.470   2.909 -0.1295  0.2041 -0.4376
   24TAL   C11515703   8.999   6.599   2.939  0.1560 -0.0397  0.3196
   24TAL   C11615704   8.914   6.548   3.057  0.9753 -0.0535  0.6535
   24TAL   C11715705   8.775   6.616   3.074 -0.0421  0.3102 -0.4211
   24TAL   C11815706   8.692   6.576   3.196 -0.2671  0.0437  0.5251
   24TAL   C11915707   8.627   6.431   3.192 -0.5833  0.7845  0.0903
   24TAL   C12015708   8.723   6.306   3.208 -0.0075  0.2281 -0.3113
   25HTM   C12115709   9.287   6.726   2.976  0.2780 -0.3022  0.4006
   25HTM   C12215710   9.211   6.817   3.042  0.2267 -0.7641  0.9806
   25HTM   C12315711   9.286   6.927   3.096  0.0609 -0.6647  1.0082
   25HTM   C12415712   9.420   6.920   3.071 -0.0143 -0.1264  0.4489
   25HTM    S1315713   9.462   6.773   2.976  0.1196  0.2993 -0.1606
   26TAL   C12515714   9.210   7.027   3.181  0.5592  0.0008 -0.2011
   26TAL   C12615715   9.215   7.010   3.330  0.3302 -0.2104  0.0430
   26TAL   C12715716   9.127   7.103   3.411  1.4554  0.1035  0.7914
   26TAL   C12815717   9.134   7.254   3.404 -0.3252 -0.3337  0.1858
   26TAL   C12915718   9.275   7.315   3.415 -0.8564  0.5942  0.0453
   26TAL   C13015719   9.280   7.460   3.459  0.2575 -0.3834  0.3676
   27HTM   C13115720   9.529   7.012   3.104 -0.1576  0.5951 -0.3888
   27HTM   C13215721   9.660   6.992   3.073 -0.1686  0.7076 -0.5102
   27HTM   C13315722   9.749   7.083   3.140 -0.1386  0.4144 -0.1510
   27HTM   C13415723   9.686   7.172   3.222 -0.1048  0.0778  0.2442
   27HTM    S1415724   9.508   7.148   3.220 -0.1081  0.1057  0.1930
   28TAL   C13515725   9.901   7.074   3.119  0.0370 -0.4360  0.0446
   28TAL   C13615726   9.968   6.943   3.072 -0.6589  1.0924  0.0543
   28TAL   C13715727   9.936   6.898   2.930 -0.3607  0.3097  0.0392
   28TAL   C13815728   9.960   6.749   2.907  0.0274  0.0263 -0.1322
   28TAL   C13915729   9.890   6.703   2.780  0.1611 -0.2972  0.8474
   28TAL   C14015730   9.931   6.572   2.713  0.6879  0.6977 -0.0066
   29HTM   C14115731   9.741   7.288   3.291  0.1830 -0.0176 -0.2294
   29HTM   C14215732   9.860   7.350   3.271  0.2186  0.0062  0.0569
   29HTM   C14315733   9.882   7.463   3.358  0.0571 -0.0863  0.2178
   29HTM   C14415734   9.779   7.486   3.444 -0.1017 -0.1808  0.0541
   29HTM    S1515735   9.645   7.367   3.422 -0.0593 -0.1599 -0.3186
   30TAL   C14515736  10.007   7.547   3.332  0.6356 -0.2489 -0.4430
   30TAL   C14615737  10.016   7.650   3.219 -1.0843  0.4525 -0.1621
   30TAL   C14715738   9.900   7.740   3.191 -0.6918 -0.4604 -0.2087
   30TAL   C14815739   9.906   7.878   3.260  0.6105  0.5853 -0.1577
   30TAL   C14915740   9.780   7.957   3.228  0.8659  0.3901 -0.1582
   30TAL   C15015741   9.757   8.098   3.273 -0.1347  0.1256  0.3516
   31HTM   C15115742   9.771   7.594   3.545 -0.1766  0.1476  0.1441
   31HTM   C15215743   9.669   7.685   3.550  0.0017  0.3424  0.2508
   31HTM   C15315744   9.698   7.801   3.631  0.2770  0.2494  0.2855
   31HTM   C15415745   9.822   7.798   3.688  0.3087 -0.0158  0.2050
   31HTM    S1615746   9.912   7.648   3.643 -0.0093 -0.1705  0.0785
   32TAL   C15515747   9.591   7.904   3.653 -0.3097 -0.9155 -0.2455
   32TAL   C15615748   9.612   8.043   3.714  0.0393 -0.7538 -0.2863
   32TAL   C15715749   9.702   8.141   3.636 -0.2721 -0.1941  0.0034
   32TAL   C15815750   9.759   8.252   3.728  0.1899  0.2839  0.2700
   32TAL   C15915751   9.855   8.344   3.645  1.2308  0.2106 -0.2368
   32TAL   C16015752   9.941   8.422   3.738  0.5747  0.7863 -0.1607
   33HTM   C16115753   9.888   7.886   3.776  0.3539 -0.0250 -0.6027
   33HTM   C16215754   9.872   7.912   3.909 -0.1106 -0.3054 -0.6050
   33HTM   C16315755   9.974   7.996   3.965 -0.4143 -0.2611 -0.1132
   33HTM   C16415756  10.069   8.035   3.875 -0.1813  0.0542  0.2641
   33HTM    S1715757  10.036   7.968   3.711  0.4445  0.3201  0.0257
   34TAL   C16515758   9.961   8.056   4.105  0.6544 -0.2253  0.1237
   34TAL   C16615759  10.028   7.985   4.224 -0.8254 -0.2076 -0.4994
   34TAL   C16715760   9.978   8.033   4.359  0.1155 -0.2227  0.1942
   34TAL   C16815761  10.017   8.179   4.396  0.5328  0.7055 -0.0473
   34TAL   C16915762  10.168   8.207   4.405 -0.6158  0.7978  0.5986
   34TAL   C17015763  10.223   8.350   4.384  0.4913  0.5786 -0.1241
   35HTM   C17115764  10.193   8.116   3.881 -0.0433  0.1972 -0.0622
   35HTM   C17215765  10.269   8.155   3.774  0.1942  0.1731  0.0970
   35HTM   C17315766  10.377   8.244   3.809  0.2326  0.0319  0.3438
   35HTM   C17415767  10.383   8.273   3.942  0.0245 -0.0520  0.3724
   35HTM    S1815768  10.252   8.190   4.035 -0.2383  0.0412  0.0879
   36TAL   C17515769  10.471   8.288   3.697 -0.0379  0.8195 -0.2252
   36TAL   C17615770  10.394   8.382   3.594  0.9166  0.0694 -0.3433
   36TAL   C17715771  10.307   8.510   3.631 -0.1064  0.4475  0.1102
   36TAL   C17815772  10.377   8.626   3.687 -0.0646 -0.2817  0.2838
   36TAL   C17915773  10.284   8.724   3.753 -0.1309  0.6494  0.1046
   36TAL   C18015774  10.339   8.846   3.819 -0.5541  0.0703  0.0043
   37HTM   C18115775  10.477   8.355   4.019 -0.2037  0.2398  0.1397
   37HTM   C18215776  10.496   8.346   4.153 -0.1631  0.3314  0.1402
   37HTM   C18315777  10.604   8.428   4.202  0.0313  0.1531  0.0117
   37HTM   C18415778  10.667   8.500   4.105  0.1390 -0.0744 -0.0869
   37HTM    S1915779  10.595   8.469   3.943  0.0022 -0.0817 -0.0246
   38TAL   C18515780  10.634   8.453   4.355  0.1474  0.4214  0.4173
   38TAL   C18615781  10.608   8.332   4.451  0.3663  0.1612  0.6159
   38TAL   C18715782  10.691   8.207   4.418  0.5568  0.1450 -0.0049
   38TAL   C18815783  10.645   8.089   4.507  0.0657  0.6498 -0.0564
   38TAL   C18915784  10.506   8.030   4.468 -0.4139  0.2894 -0.3659
   38TAL   C19015785  10.460   7.898   4.509 -0.1251  0.2378  0.3879
   39HTM   C19115786  10.790   8.576   4.100 -0.1900  0.1281 -0.1167
   39HTM   C19215787  10.804   8.707   4.137 -0.0735  0.0429  0.1431
   39HTM   C19315788  10.933   8.762   4.108  0.0704 -0.0973  0.5131
   39HTM   C19415789  11.019   8.674   4.049  0.0634 -0.1191  0.5355
   39HTM    S2015790  10.942   8.513   4.025 -0.1267  0.0374  0.0881
   40TAL   C19515791  10.976   8.909   4.148  0.0338 -0.1633 -0.0837
   40TAL   C19615792  10.926   8.977   4.272  0.1732 -0.4734  0.4601
   40TAL   C19715793  10.924   8.912   4.405 -0.2676 -0.5713  0.1297
   40TAL   C19815794  11.054   8.867   4.465  0.7067  1.0036 -0.0249
   40TAL   C19915795  11.050   8.833   4.608  0.1629 -0.0707 -0.3582
   40TAL   C20015796  10.961   8.723   4.662  0.6591  0.4850 -0.0043
   41HTM   C20115797  11.163   8.685   4.020 -0.1270  0.0179 -0.9167
   41HTM   C20215798  11.250   8.580   4.023 -0.2328 -0.0763 -1.1573
   41HTM   C20315799  11.387   8.618   4.001 -0.1179 -0.0806 -0.4787
   41HTM   C20415800  11.405   8.751   3.981  0.0756  0.0112  0.2798
   41HTM    S2115801  11.249   8.841   3.989  0.1278  0.1101  0.1949
   42TAL   C20515802  11.491   8.516   3.998 -0.9592  0.2637 -0.4228
   42TAL   C20615803  11.490   8.417   3.879  0.3923 -0.5025 -0.1331
   42TAL   C20715804  11.614   8.320   3.878  0.1353 -0.0638  0.4486
   42TAL   C20815805  11.759   8.377   3.880 -0.3380 -0.7353 -0.3138
   42TAL   C20915806  11.865   8.270   3.861 -0.0084  0.1986  0.6712
   42TAL   C21015807  12.002   8.334   3.873 -0.1373  0.3838 -0.3527
   43HTM   C21115808  11.523   8.830   3.946  0.4275 -0.1147 -0.3011
   43HTM   C21215809  11.645   8.795   3.899  0.6895  0.1326  0.1882
   43HTM   C21315810  11.737   8.905   3.887  0.5302  0.3119  0.5929
   43HTM   C21415811  11.685   9.025   3.925  0.1470  0.2010  0.4124
   43HTM    S2215812  11.513   9.008   3.979 -0.0441 -0.1409 -0.2883
   44TAL   C21515813  11.883   8.884   3.832 -0.0779 -0.6179 -0.7106
   44TAL   C21615814  11.943   8.745   3.802  0.1203  0.2933  0.6586
   44TAL   C21715815  12.071   8.767   3.725 -0.1682  0.3792 -0.4568
   44TAL   C21815816  12.137   8.638   3.681 -0.5006  0.3068  0.1458
   44TAL   C21915817  12.281   8.636   3.648 -0.0426 -0.1661 -0.4843
   44TAL   C22015818  12.334   8.508   3.588 -0.0321 -0.5026 -0.0014
   45HTM   C22115819  11.746   9.157   3.923  0.4059 -0.1602 -0.1649
   45HTM   C22215820  11.692   9.279   3.893  0.2838 -0.2339 -0.2470
   45HTM   C22315821  11.785   9.388   3.906  0.0668 -0.0858  0.0598
   45HTM   C22415822  11.909   9.349   3.947  0.0230  0.1009  0.3756
   45HTM    S2315823  11.919   9.171   3.971  0.2547  0.1042  0.3097
   46TAL   C22515824  11.741   9.535   3.891  0.3952  0.2865 -0.1948
   46TAL   C22615825  11.660   9.597   4.008  0.2859  0.5603 -0.5213
   46TAL   C22715826  11.620   9.743   4.002 -0.4175  0.3176  0.2542
   46TAL   C22815827  11.722   9.851   3.989 -0.3574  0.0560 -0.2491
   46TAL   C22915828  11.668   9.978   3.926 -0.2320  0.2742  0.2747
   46TAL   C23015829  11.784  10.075   3.931  0.0338 -0.3123 -0.0329
   47HTM   C23115830  12.037   9.431   3.966  0.0421 -0.0245 -0.1549
   47HTM   C23215831  12.158   9.370   3.976  0.1017  0.0406 -0.4798
   47HTM   C23315832  12.269   9.462   3.980  0.0411  0.1122 -0.4455
   47HTM   C23415833  12.232   9.593   3.973 -0.0646  0.1017 -0.0946
   47HTM    S2415834  12.053   9.611   3.961 -0.0961 -0.0002  0.2224
   48TAL   C23515835  12.419   9.429   3.986 -0.3748  0.2099 -0.0079
   48TAL   C23615836  12.475   9.331   3.884 -0.2562  0.0225  0.1073
   48TAL   C23715837  12.618   9.296   3.922 -0.8236 -0.4169  0.0217
   48TAL   C23815838  12.690   9.220   3.808 -0.4042 -0.2413  0.6094
   48TAL   C23915839  12.838   9.199   3.823 -0.0198 -0.6548  0.0361
   48TAL   C24015840  12.883   9.104   3.925  0.4051 -0.0164  0.4760
    1HTM     C115841   4.252   8.758   6.389 -0.4458  0.2019 -0.2771
    1HTM     C215842   4.337   8.654   6.364 -0.2918  0.4735 -0.9093
    1HTM     C315843   4.270   8.528   6.349 -0.0427  0.3457 -0.9344
    1HTM     C415844   4.135   8.535   6.362 -0.0074 -0.0235 -0.3216
    1HTM     S115845   4.080   8.704   6.395 -0.2879 -0.2401  0.3400
    2TAL     C515846   4.346   8.401   6.321 -0.1185 -0.2193  0.1900
    2TAL     C615847   4.496   8.386   6.364  0.3563  0.1940 -0.5797
    2TAL     C715848   4.518   8.393   6.512 -0.8002 -0.1712  0.5035
    2TAL     C815849   4.669   8.385   6.546  0.0303 -0.5920  0.0715
    2TAL     C915850   4.703   8.411   6.695  0.0940 -0.0064  0.1775
    2TAL    C1015851   4.625   8.326   6.800  0.0696 -0.6329  0.2855
    3HTM    C1115852   4.028   8.440   6.374 -0.1566 -0.0245 -0.0060
    3HTM    C1215853   3.912   8.469   6.439 -0.1887  0.0381 -0.0937
    3HTM    C1315854   3.812   8.367   6.427 -0.0854 -0.0935  0.1881
    3HTM    C1415855   3.852   8.259   6.355  0.0259 -0.2566  0.4905
    3HTM     S215856   4.020   8.278   6.294  0.0085 -0.2565  0.4425
    4TAL    C1515857   3.672   8.397   6.493 -0.2291  0.1015  0.7276
    4TAL    C1615858   3.663   8.400   6.646  0.0381 -0.1851  0.0402
    4TAL    C1715859   3.556   8.492   6.694 -0.0734 -0.8847 -0.5383
    4TAL    C1815860   3.570   8.523   6.842 -0.1037  0.0617  0.0914
    4TAL    C1915861   3.469   8.625   6.894 -0.1237 -0.9081 -0.3856
    4TAL    C2015862   3.321   8.613   6.874  0.5728  0.1746 -0.1957
    5HTM    C2115863   3.789   8.130   6.333 -0.4937  0.6998 -0.3126
    5HTM    C2215864   3.847   8.021   6.276 -0.2577  0.7496 -0.1683
    5HTM    C2315865   3.762   7.904   6.274  0.0874  0.4880  0.2215
    5HTM    C2415866   3.639   7.925   6.330  0.1145  0.2398  0.3742
    5HTM     S315867   3.622   8.094   6.389 -0.2968  0.3174  0.0350
    6TAL    C2515868   3.781   7.783   6.186 -0.9297 -0.5765 -0.6607
    6TAL    C2615869   3.897   7.691   6.228 -0.7249 -0.5038  0.2409
    6TAL    C2715870   3.900   7.548   6.156 -0.6109 -0.4342 -0.5221
    6TAL    C2815871   3.772   7.459   6.174  0.5299 -0.8804 -0.1991
    6TAL    C2915872   3.772   7.337   6.083 -0.4224 -0.2655 -0.2294
    6TAL    C3015873   3.670   7.223   6.102 -0.5275 -0.7654 -0.6675
    7HTM    C3115874   3.520   7.840   6.341  0.1754  0.0238  0.3795
    7HTM    C3215875   3.389   7.873   6.360  0.1943  0.1376  0.3133
    7HTM    C3315876   3.303   7.759   6.377  0.0515  0.2053  0.0458
    7HTM    C3415877   3.367   7.640   6.371 -0.0761  0.1441 -0.0914
    7HTM     S415878   3.544   7.661   6.342 -0.0255 -0.0062  0.1074
    8TAL    C3515879   3.153   7.786   6.391 -0.0208 -0.6449  1.0051
    8TAL    C3615880   3.106   7.811   6.533  0.0667 -0.4767 -0.2081
    8TAL    C3715881   2.968   7.872   6.555 -0.3820 -1.0427 -0.9502
    8TAL    C3815882   2.931   7.906   6.699 -0.7734 -0.0282 -0.1352
    8TAL    C3915883   2.782   7.926   6.720  0.2956 -0.1806  0.3661
    8TAL    C4015884   2.738   7.930   6.861  0.1039  0.1994 -0.1726
    9HTM    C4115885   3.320   7.498   6.376 -0.0675  0.3414 -0.1874
    9HTM    C4215886   3.393   7.388   6.408  0.2500  0.6037 -0.0088
    9HTM    C4315887   3.324   7.264   6.387  0.5600  0.3734  0.3183
    9HTM    C4415888   3.197   7.279   6.340  0.4789 -0.0645  0.3892
    9HTM     S515889   3.155   7.453   6.317  0.0010 -0.2212  0.0458
   10TAL    C4515890   3.385   7.124   6.410  0.7700 -0.2759  0.4310
   10TAL    C4615891   3.466   7.097   6.538 -0.5932 -0.6736  0.2212
   10TAL    C4715892   3.418   7.150   6.672 -0.1910  0.1849 -0.0578
   10TAL    C4815893   3.493   7.112   6.802 -0.8739  0.2179  0.6952
   10TAL    C4915894   3.517   6.967   6.817  0.0079  1.1791  0.0178
   10TAL    C5015895   3.596   6.931   6.944 -0.2690  0.4208 -0.0338
   11HTM    C5115896   3.097   7.184   6.290  0.5802 -0.2617  0.2210
   11HTM    C5215897   2.983   7.223   6.227  0.6561 -0.0958  0.1845
   11HTM    C5315898   2.900   7.113   6.183  0.4108  0.0246  0.3433
   11HTM    C5415899   2.952   6.991   6.213  0.1477 -0.0503  0.5008
   11HTM     S615900   3.110   7.004   6.299  0.1895 -0.2793  0.4606
   12TAL    C5515901   2.770   7.125   6.105 -0.1350  0.4963  0.8513
   12TAL    C5615902   2.674   7.243   6.138  0.3373 -0.1642 -0.0414
   12TAL    C5715903   2.591   7.230   6.262 -0.0714 -0.6190  0.0108
   12TAL    C5815904   2.485   7.338   6.283 -0.0485 -0.1050 -0.1588
   12TAL    C5915905   2.401   7.316   6.401 -0.0947  0.0801 -0.3219
   12TAL    C6015906   2.312   7.442   6.423 -0.5430  0.0730  0.0625
   13HTM    C6115907   2.914   6.860   6.173 -0.0919  0.0576  0.0446
   13HTM    C6215908   2.988   6.767   6.106  0.1445  0.1380  0.1926
   13HTM    C6315909   2.920   6.641   6.087  0.4011 -0.0088  0.2468
   13HTM    C6415910   2.795   6.638   6.140  0.3605 -0.2010  0.1398
   13HTM     S715911   2.752   6.795   6.218 -0.0078 -0.2116 -0.0388
   14TAL    C6515912   2.985   6.532   6.005 -0.0886  0.4200 -0.2065
   14TAL    C6615913   3.058   6.426   6.087  0.1312  0.1191  0.0097
   14TAL    C6715914   3.012   6.286   6.056  0.0480 -0.2791 -0.0592
   14TAL    C6815915   3.110   6.184   6.111  1.0715  0.3585  0.1494
   14TAL    C6915916   3.046   6.040   6.099 -0.0156 -0.1031  0.4938
   14TAL    C7015917   3.123   5.933   6.027 -0.4449  0.8330  0.1298
   15HTM    C7115918   2.696   6.535   6.154  0.0955 -0.1281 -0.2044
   15HTM    C7215919   2.710   6.402   6.126  0.0027 -0.1411 -0.1898
   15HTM    C7315920   2.586   6.331   6.115 -0.0418 -0.0877 -0.0277
   15HTM    C7415921   2.476   6.409   6.136  0.0167 -0.0336  0.0814
   15HTM     S815922   2.522   6.580   6.170  0.1338 -0.0460 -0.0127
   16TAL    C7515923   2.578   6.179   6.100  0.0509  0.6380 -0.1220
   16TAL    C7615924   2.691   6.091   6.155 -0.0370  0.4971  0.0092
   16TAL    C7715925   2.666   5.944   6.131 -0.4955  0.2420 -0.1819
   16TAL    C7815926   2.752   5.845   6.202  0.5120 -0.1398 -0.2035
   16TAL    C7915927   2.784   5.840   6.356  0.0933  0.6422  0.4385
   16TAL    C8015928   2.882   5.723   6.394 -0.6335 -0.0102  0.8857
   17HTM    C8115929   2.332   6.385   6.114  0.0427 -0.0571 -0.1505
   17HTM    C8215930   2.237   6.483   6.117  0.1199  0.0138 -0.0343
   17HTM    C8315931   2.103   6.434   6.102  0.0482  0.0916  0.3381
   17HTM    C8415932   2.094   6.299   6.087 -0.0838  0.0801  0.5059
   17HTM     S915933   2.258   6.222   6.091 -0.1280 -0.0309  0.2043
   18TAL    C8515934   1.984   6.527   6.115  0.3692 -0.4183  0.4763
   18TAL    C8615935   1.966   6.576   6.259  0.2640 -0.2697  0.0658
   18TAL    C8715936   1.870   6.689   6.281 -0.2449 -0.2195 -0.6646
   18TAL    C8815937   1.809   6.709   6.421  0.0101 -0.3209  0.0626
   18TAL    C8915938   1.898   6.741   6.537  0.2179 -0.2204 -0.5167
   18TAL    C9015939   1.824   6.762   6.665  0.0646 -0.3138 -0.3782
   19HTM    C9115940   1.980   6.207   6.089 -0.0610 -0.3277 -0.2774
   19HTM    C9215941   1.851   6.232   6.053 -0.2385 -0.4616  0.2561
   19HTM    C9315942   1.762   6.120   6.074 -0.0767 -0.4909  0.8018
   19HTM    C9415943   1.824   6.010   6.126  0.2242 -0.3789  0.6846
   19HTM    S1015944   2.000   6.039   6.153  0.3272 -0.2268 -0.1305
   20TAL    C9515945   1.616   6.134   6.032  0.6435  0.0329  0.1471
   20TAL    C9615946   1.542   6.271   6.028  0.2970  0.0304  0.1495
   20TAL    C9715947   1.547   6.348   6.152  0.0569 -0.3288 -0.4960
   20TAL    C9815948   1.491   6.490   6.144  0.1946  0.1889 -0.2227
   20TAL    C9915949   1.463   6.550   6.286  0.0545  0.0057 -0.5725
   20TAL   C10015950   1.368   6.658   6.262 -0.1669  0.0308 -0.1036
   21HTM   C10115951   1.777   5.876   6.147 -0.3774  0.2959 -0.1821
   21HTM   C10215952   1.849   5.760   6.139 -0.3658  0.3185 -0.4106
   21HTM   C10315953   1.773   5.643   6.176 -0.3185  0.2506 -0.5271
   21HTM   C10415954   1.645   5.670   6.213 -0.2940  0.1760 -0.3872
   21HTM    S1115955   1.609   5.847   6.203 -0.3290  0.1856 -0.0951
   22TAL   C10515956   1.832   5.503   6.151  0.4192  0.2179 -0.4436
   22TAL   C10615957   1.949   5.493   6.046  0.0208 -0.1449 -0.1558
   22TAL   C10715958   2.084   5.457   6.113 -0.4127 -0.1092 -0.0355
   22TAL   C10815959   2.098   5.301   6.097 -0.7722 -0.0623  0.0713
   22TAL   C10915960   2.216   5.255   6.184 -0.0549  0.2527  0.2494
   22TAL   C11015961   2.224   5.103   6.193 -0.1141  0.7154  0.4719
   23HTM   C11115962   1.535   5.580   6.253 -0.0093 -0.2715  0.0222
   23HTM   C11215963   1.403   5.612   6.253 -0.0265 -0.3417 -0.1094
   23HTM   C11315964   1.318   5.506   6.299 -0.0198 -0.4005 -0.2325
   23HTM   C11415965   1.386   5.393   6.334  0.0027 -0.3753 -0.1948
   23HTM    S1215966   1.563   5.412   6.311  0.0171 -0.2747  0.0007
   24TAL   C11515967   1.172   5.527   6.308 -0.0913  0.3883  0.5107
   24TAL   C11615968   1.141   5.653   6.391 -0.5425 -0.3064 -0.5072
   24TAL   C11715969   1.002   5.679   6.442  0.5682 -0.6512  0.4426
   24TAL   C11815970   0.906   5.577   6.507  0.4173  0.6195 -1.0950
   24TAL   C11915971   0.961   5.499   6.623 -0.5218 -0.0794 -0.4951
   24TAL   C12015972   0.890   5.364   6.642  0.1740 -0.1025 -0.3606
   25HTM   C12115973   1.340   5.260   6.377 -0.2404  0.2398  0.0215
   25HTM   C12215974   1.418   5.158   6.424  0.0538  0.2398 -0.4544
   25HTM   C12315975   1.346   5.035   6.442  0.2723  0.1121 -0.4587
   25HTM   C12415976   1.214   5.042   6.408  0.1446  0.0150  0.0136
   25HTM    S1315977   1.170   5.207   6.351 -0.2645  0.0773  0.5047
   26TAL   C12515978   1.420   4.905   6.492 -0.1889  0.5303 -1.2152
   26TAL   C12615979   1.579   4.890   6.485  0.3665 -0.0467 -0.1170
   26TAL   C12715980   1.635   4.760   6.555  0.3965 -0.4013  0.1663
   26TAL   C12815981   1.786   4.739   6.540 -0.2870  0.1351 -0.0165
   26TAL   C12915982   1.823   4.600   6.585 -0.1266  0.1480  0.2918
   26TAL   C13015983   1.970   4.593   6.606 -0.3419  0.1771  0.0443
   27HTM   C13115984   1.106   4.944   6.409 -0.0463  0.3381 -0.2682
   27HTM   C13215985   1.098   4.822   6.469  0.5920  0.1571 -0.5429
   27HTM   C13315986   0.981   4.747   6.430  0.8289 -0.2451 -0.4840
   27HTM   C13415987   0.901   4.812   6.341  0.3713 -0.3710 -0.1645
   27HTM    S1415988   0.967   4.975   6.300 -0.4004  0.0120  0.0888
   28TAL   C13515989   0.953   4.618   6.510 -0.2587  0.7092  0.0602
   28TAL   C13615990   0.822   4.531   6.500 -0.2369 -0.2498  0.6279
   28TAL   C13715991   0.803   4.459   6.370 -0.1029  0.6046 -0.2305
   28TAL   C13815992   0.667   4.400   6.358  0.1635  0.1427  0.0429
   28TAL   C13915993   0.629   4.325   6.232 -0.6392 -0.2759 -0.7045
   28TAL   C14015994   0.697   4.189   6.215 -0.4729 -0.3428 -0.0762
   29HTM   C14115995   0.774   4.777   6.271 -0.2872  0.1141  0.3158
   29HTM   C14215996   0.644   4.790   6.309 -0.3813  0.5491 -0.1566
   29HTM   C14315997   0.550   4.733   6.216 -0.2373  0.9067 -0.5209
   29HTM   C14415998   0.609   4.676   6.107 -0.0335  0.7438 -0.3263
   29HTM    S1515999   0.789   4.690   6.114 -0.0074  0.1218  0.3374
   30TAL   C14516000   0.396   4.750   6.233 -0.6090  0.5987 -0.5595
   30TAL   C14616001   0.348   4.697   6.369  0.2363 -0.1192  1.1476
   30TAL   C14716002   0.200   4.723   6.401 -0.8348  0.0493 -0.5691
   30TAL   C14816003   0.154   4.684   6.537  0.2088 -0.0505 -0.6311
   30TAL   C14916004   0.161   4.530   6.571 -0.0301  0.3977 -0.2024
   30TAL   C15016005   0.078   4.442   6.483 -0.0982 -0.3271 -0.2782
   31HTM   C15116006   0.552   4.616   5.987  0.4003 -0.5230  0.0588
   31HTM   C15216007   0.619   4.623   5.868  0.2760 -0.7987 -0.0265
   31HTM   C15316008   0.539   4.586   5.754  0.0750 -0.7892  0.1106
   31HTM   C15416009   0.411   4.552   5.786  0.0461 -0.5065  0.3007
   31HTM    S1616010   0.381   4.564   5.963  0.2722 -0.2278  0.3215
   32TAL   C15516011   0.592   4.599   5.611 -0.0942 -0.6898 -0.2235
   32TAL   C15616012   0.736   4.657   5.599 -0.5201 -0.6841  0.3658
   32TAL   C15716013   0.753   4.810   5.584  0.1865 -0.4957  0.2739
   32TAL   C15816014   0.895   4.857   5.556 -0.1415  0.2999  0.3837
   32TAL   C15916015   0.898   5.004   5.511  0.7097 -0.1945  0.4663
   32TAL   C16016016   1.032   5.066   5.528  0.0509  0.8846 -0.3241
   33HTM   C16116017   0.294   4.540   5.702  0.1495  0.0237  0.0348
   33HTM   C16216018   0.263   4.620   5.596  0.1344 -0.3102 -0.2174
   33HTM   C16316019   0.123   4.617   5.560  0.1662 -0.5791 -0.3183
   33HTM   C16416020   0.049   4.534   5.639  0.2056 -0.4497 -0.1426
   33HTM    S1716021   0.149   4.453   5.764  0.2055  0.0247  0.1656
   34TAL   C16516022   0.086   4.704   5.443  0.2519  0.4911 -1.1258
   34TAL   C16616023   0.081   4.851   5.473  0.0658 -0.1492  0.1415
   34TAL   C16716024  -0.015   4.899   5.578 -0.2099 -0.0011  0.5578
   34TAL   C16816025   0.011   5.033   5.631  0.1185  0.2200 -0.3609
   34TAL   C16916026  -0.093   5.067   5.733  0.2765 -0.0526  0.0467
   34TAL   C17016027  -0.075   5.202   5.804 -0.1708  1.1072 -0.3726
   35HTM   C17116028  -0.095   4.507   5.641 -0.0452  0.0224  0.2736
   35HTM   C17216029  -0.159   4.448   5.746  0.1063 -0.1974  0.2434
   35HTM   C17316030  -0.303   4.455   5.737  0.0892 -0.5186  0.2725
   35HTM   C17416031  -0.348   4.518   5.625 -0.0750 -0.5438  0.3248
   35HTM    S1816032  -0.212   4.575   5.522 -0.2221 -0.1606  0.3413
   36TAL   C17516033  -0.393   4.389   5.839  1.6204 -0.2784 -0.1584
   36TAL   C17616034  -0.357   4.248   5.887 -0.0064 -0.0669  0.0318
   36TAL   C17716035  -0.463   4.160   5.942 -0.0384 -0.0899  0.0082
   36TAL   C17816036  -0.411   4.022   5.972  0.1973 -0.2804  0.1779
   36TAL   C17916037  -0.507   3.937   6.049 -0.3857 -0.4830 -0.4440
   36TAL   C18016038  -0.489   3.789   6.025 -1.0065 -0.0445  0.7576
   37HTM   C18116039  -0.482   4.536   5.571  0.1677  0.1112 -0.2385
   37HTM   C18216040  -0.534   4.659   5.542  0.0253  0.0539 -0.2215
   37HTM   C18316041  -0.673   4.655   5.504  0.0095 -0.0937 -0.1483
   37HTM   C18416042  -0.726   4.529   5.503  0.1398 -0.1490 -0.1093
   37HTM    S1916043  -0.604   4.405   5.551  0.2934 -0.0180 -0.1624
   38TAL   C18516044  -0.754   4.783   5.474  0.5386 -0.0777  0.3398
   38TAL   C18616045  -0.890   4.810   5.543 -0.0749 -0.4471 -0.0080
   38TAL   C18716046  -0.954   4.926   5.476 -0.3210 -0.2674 -0.5221
   38TAL   C18816047  -1.079   4.983   5.536  0.3238 -0.5641  0.4112
   38TAL   C18916048  -1.094   5.124   5.467  0.1578  0.3411 -0.5909
   38TAL   C19016049  -1.218   5.205   5.504 -0.3194  0.9314  0.4087
   39HTM   C19116050  -0.859   4.488   5.473 -0.2143 -0.4005  0.1465
   39HTM   C19216051  -0.949   4.430   5.556 -0.1678 -0.4201  0.1838
   39HTM   C19316052  -1.065   4.378   5.489 -0.3426 -0.1454  0.2716
   39HTM   C19416053  -1.063   4.397   5.354 -0.5235  0.0835  0.3013
   39HTM    S2016054  -0.914   4.482   5.301 -0.4860 -0.0308  0.2197
   40TAL   C19516055  -1.167   4.299   5.569 -0.8307  0.5116  0.9865
   40TAL   C19616056  -1.168   4.151   5.545  0.3001 -0.7253  0.0425
   40TAL   C19716057  -1.301   4.079   5.564 -0.0182 -0.0146 -0.6410
   40TAL   C19816058  -1.414   4.118   5.464  0.2579  0.2250 -0.1123
   40TAL   C19916059  -1.554   4.067   5.492  0.9185 -0.5975 -0.2711
   40TAL   C20016060  -1.575   3.922   5.490 -0.6790 -0.2631 -0.1413
   41HTM   C20116061  -1.151   4.345   5.254 -0.0690 -0.1215 -0.7788
   41HTM   C20216062  -1.163   4.224   5.191 -0.7656 -0.2224 -0.4597
   41HTM   C20316063  -1.271   4.219   5.095 -1.2858 -0.1037  0.1140
   41HTM   C20416064  -1.341   4.336   5.085 -0.9855  0.0877  0.2319
   41HTM    S2116065  -1.275   4.462   5.197 -0.0150  0.1332 -0.3768
   42TAL   C20516066  -1.283   4.098   5.004 -0.1647 -0.4642  0.3098
   42TAL   C20616067  -1.152   4.012   4.985  0.4916 -0.7196  0.0077
   42TAL   C20716068  -1.031   4.067   4.924 -0.2096 -0.1805  0.8652
   42TAL   C20816069  -1.045   4.163   4.795  0.4353  0.1875 -0.1770
   42TAL   C20916070  -0.910   4.180   4.730  0.0753 -0.4526 -0.5734
   42TAL   C21016071  -0.904   4.264   4.598 -0.5537  0.1071  0.6862
   43HTM   C21116072  -1.428   4.382   4.983 -0.1114 -0.0838  0.0320
   43HTM   C21216073  -1.546   4.322   4.953  0.1700 -0.4263 -0.3960
   43HTM   C21316074  -1.622   4.391   4.852  0.3316 -0.6435 -0.6678
   43HTM   C21416075  -1.561   4.504   4.805  0.1732 -0.4674 -0.4474
   43HTM    S2216076  -1.402   4.532   4.886 -0.1952 -0.0089  0.1255
   44TAL   C21516077  -1.767   4.351   4.825  0.0864 -0.5247  0.7667
   44TAL   C21616078  -1.869   4.375   4.939 -0.0394  0.0501 -0.2556
   44TAL   C21716079  -2.010   4.357   4.889 -0.5699 -0.2820 -0.1491
   44TAL   C21816080  -2.051   4.220   4.836 -0.8678  0.4652 -0.1444
   44TAL   C21916081  -2.102   4.142   4.948  0.6353 -0.4017  0.5145
   44TAL   C22016082  -2.080   3.994   4.921 -0.5230  0.1520  0.2693
   45HTM   C22116083  -1.583   4.599   4.693 -0.0934  0.3720  0.0073
   45HTM   C22216084  -1.505   4.703   4.650 -0.1140  0.4447  0.1473
   45HTM   C22316085  -1.562   4.775   4.540  0.0226  0.3860  0.0393
   45HTM   C22416086  -1.682   4.726   4.497  0.1477  0.2680 -0.1831
   45HTM    S2316087  -1.734   4.584   4.595  0.1022  0.2221 -0.2740
   46TAL   C22516088  -1.485   4.896   4.491  0.2638  0.1984 -0.3444
   46TAL   C22616089  -1.484   5.016   4.586  0.2950  0.9325  0.1876
   46TAL   C22716090  -1.608   5.083   4.645 -0.5181 -0.2334 -0.3375
   46TAL   C22816091  -1.713   5.103   4.534 -0.0001 -0.5138 -0.0250
   46TAL   C22916092  -1.848   5.077   4.586  0.3061  0.3664 -0.1741
   46TAL   C23016093  -1.960   5.113   4.478  0.4295 -0.1310 -0.2270
   47HTM   C23116094  -1.767   4.773   4.390 -0.1457  0.7252  0.1823
   47HTM   C23216095  -1.738   4.859   4.289 -0.4740  1.1518  0.4468
   47HTM   C23316096  -1.847   4.880   4.197 -0.4697  0.8144  0.3643
   47HTM   C23416097  -1.959   4.809   4.228 -0.1382  0.1305  0.0367
   47HTM    S2416098  -1.936   4.711   4.377  0.1970 -0.1421 -0.1946
   48TAL   C23516099  -1.838   4.950   4.068  0.8570 -0.0365  1.0167
   48TAL   C23616100  -1.712   4.948   3.982 -0.1911 -0.0794 -0.4336
   48TAL   C23716101  -1.682   4.814   3.917  0.0747  0.4327 -0.0843
   48TAL   C23816102  -1.649   4.682   3.992  0.7328 -0.5428 -0.3294
   48TAL   C23916103  -1.511   4.677   4.060  0.1623 -0.2249  0.1606
   48TAL   C24016104  -1.493   4.549   4.138 -0.0481  0.0639  0.3204
    1HTM     C116105   5.502   2.322   0.051 -0.0129 -0.1361 -0.1786
    1HTM     C216106   5.590   2.272   0.142 -0.0083 -0.0907 -0.1583
    1HTM     C316107   5.528   2.227   0.264  0.0279  0.2108 -0.0279
    1HTM     C416108   5.393   2.243   0.266  0.0508  0.3953  0.0511
    1HTM     S116109   5.333   2.317   0.113  0.0281  0.2010 -0.0335
    2TAL     C516110   5.605   2.161   0.378  0.8323  0.1490 -0.5717
    2TAL     C616111   5.685   2.249   0.480  0.6250  0.0836 -0.1121
    2TAL     C716112   5.783   2.344   0.420 -0.3832  0.7382 -0.0672
    2TAL     C816113   5.919   2.281   0.457 -0.0813 -0.0712  0.3664
    2TAL     C916114   6.030   2.342   0.371 -0.6451 -0.0687 -0.6709
    2TAL    C1016115   6.160   2.259   0.388  0.5155  0.7298  0.3213
    3HTM    C1116116   5.294   2.219   0.374 -0.2801 -0.1512 -0.2169
    3HTM    C1216117   5.205   2.312   0.419 -0.2854 -0.1311 -0.2690
    3HTM    C1316118   5.096   2.256   0.496 -0.1726 -0.0716 -0.0654
    3HTM    C1416119   5.103   2.120   0.509 -0.0815 -0.0466  0.1418
    3HTM     S216120   5.248   2.052   0.426 -0.1315 -0.0965  0.0956
    4TAL    C1516121   4.990   2.344   0.556  0.2844 -0.5201 -1.3086
    4TAL    C1616122   4.936   2.454   0.458 -0.1333 -0.1826 -0.5057
    4TAL    C1716123   4.888   2.413   0.324 -0.7132 -1.3974  0.6691
    4TAL    C1816124   4.756   2.336   0.343 -0.8430  0.0304  0.7253
    4TAL    C1916125   4.705   2.311   0.208  0.6416  0.3724  0.5655
    4TAL    C2016126   4.585   2.221   0.214  0.4388  0.1461 -0.0312
    5HTM    C2116127   5.003   2.031   0.570  0.3497 -0.0551  0.2789
    5HTM    C2216128   4.868   2.037   0.556  0.3624 -0.0867  0.1406
    5HTM    C2316129   4.799   1.920   0.604  0.3595 -0.2112 -0.1653
    5HTM    C2416130   4.882   1.825   0.655  0.3451 -0.2746 -0.2604
    5HTM     S316131   5.055   1.876   0.646  0.3330 -0.1811  0.0315
    6TAL    C2516132   4.653   1.898   0.605 -0.3801 -0.7139 -0.9289
    6TAL    C2616133   4.557   1.988   0.518 -0.4475 -0.2103 -0.1158
    6TAL    C2716134   4.491   2.110   0.571  1.0590  0.1701  0.5043
    6TAL    C2816135   4.561   2.208   0.661 -0.6558  0.9574 -0.2171
    6TAL    C2916136   4.478   2.334   0.681  0.1722 -0.3725 -0.9987
    6TAL    C3016137   4.517   2.421   0.804  0.2004  0.0736  0.0641
    7HTM    C3116138   4.858   1.693   0.708 -0.7092  0.2281 -0.0916
    7HTM    C3216139   4.953   1.598   0.728 -0.3624  0.6093  0.0921
    7HTM    C3316140   4.901   1.474   0.780  0.0873  0.5211  0.3395
    7HTM    C3416141   4.766   1.475   0.800  0.0829  0.0726  0.3445
    7HTM     S416142   4.693   1.634   0.754 -0.4933 -0.2759  0.0347
    8TAL    C3516143   4.989   1.362   0.827 -0.2357  0.1304  0.3078
    8TAL    C3616144   5.129   1.391   0.876 -0.3668  0.2531 -0.1250
    8TAL    C3716145   5.153   1.484   0.994 -0.1674 -0.2427  0.5448
    8TAL    C3816146   5.236   1.603   0.960 -0.0406 -0.4101 -0.3939
    8TAL    C3916147   5.193   1.728   1.032  0.3417  0.5072 -0.7600
    8TAL    C4016148   5.295   1.837   1.019 -0.7700 -0.0372 -0.0195
    9HTM    C4116149   4.672   1.374   0.851 -0.0657 -0.3303 -0.4611
    9HTM    C4216150   4.687   1.252   0.909 -0.0854 -0.4258 -0.6551
    9HTM    C4316151   4.562   1.183   0.932 -0.1237 -0.2823 -0.4261
    9HTM    C4416152   4.453   1.253   0.891 -0.1335 -0.0775 -0.0575
    9HTM     S516153   4.498   1.412   0.820 -0.0946 -0.0497  0.0296
   10TAL    C4516154   4.557   1.051   1.000  0.6159  0.5346  0.2847
   10TAL    C4616155   4.656   1.005   1.102  0.7719  0.1777  0.2072
   10TAL    C4716156   4.633   1.073   1.236 -0.3862 -0.4860 -0.2098
   10TAL    C4816157   4.716   1.028   1.356  0.0400  0.1581  0.1390
   10TAL    C4916158   4.865   0.993   1.330  0.5402  0.0317  0.3169
   10TAL    C5016159   4.934   0.909   1.442 -0.5339 -0.0970  0.0116
   11HTM    C5116160   4.314   1.212   0.870  0.0618 -0.0118 -0.4293
   11HTM    C5216161   4.254   1.090   0.872  0.1402 -0.0482 -0.2236
   11HTM    C5316162   4.113   1.095   0.841  0.0527 -0.1435  0.1599
   11HTM    C5416163   4.066   1.220   0.816 -0.0931 -0.1798  0.2465
   11HTM     S616164   4.198   1.343   0.829 -0.1311 -0.0958 -0.1524
   12TAL    C5516165   4.026   0.969   0.837 -0.1467  0.0763 -0.0166
   12TAL    C5616166   4.037   0.842   0.919 -0.0603  0.4699  0.6041
   12TAL    C5716167   3.935   0.736   0.878 -0.1513  0.3009 -0.2046
   12TAL    C5816168   3.786   0.759   0.861 -0.1184 -0.5483  0.2736
   12TAL    C5916169   3.704   0.825   0.976 -0.1002  0.4696 -0.0467
   12TAL    C6016170   3.553   0.817   0.978 -0.5224  0.0823 -0.0444
   13HTM    C6116171   3.940   1.279   0.778  0.0034 -0.3849  0.3261
   13HTM    C6216172   3.904   1.407   0.806  0.1888 -0.3605  0.4583
   13HTM    C6316173   3.764   1.434   0.781  0.3198 -0.0220  0.0959
   13HTM    C6416174   3.695   1.327   0.734  0.2342  0.2120 -0.3125
   13HTM     S716175   3.801   1.182   0.717 -0.0204  0.0214 -0.2710
   14TAL    C6516176   3.698   1.564   0.818  0.5064  0.1663  0.2763
   14TAL    C6616177   3.770   1.695   0.776  0.1112  0.1870  0.5708
   14TAL    C6716178   3.679   1.816   0.767 -0.0943  0.5704 -0.8577
   14TAL    C6816179   3.562   1.806   0.667 -0.1544 -0.2113 -0.3436
   14TAL    C6916180   3.480   1.935   0.680 -0.1939 -0.1426  0.1882
   14TAL    C7016181   3.395   1.953   0.561 -0.3140  0.2691  0.2659
   15HTM    C7116182   3.558   1.319   0.712  0.2614  0.0501  0.2386
   15HTM    C7216183   3.480   1.389   0.624  0.4833  0.3057  0.2454
   15HTM    C7316184   3.339   1.363   0.638  0.4418  0.3200 -0.1370
   15HTM    C7416185   3.309   1.274   0.737  0.1886  0.0753 -0.4354
   15HTM     S816186   3.458   1.214   0.820 -0.0191 -0.1944 -0.2551
   16TAL    C7516187   3.240   1.446   0.554 -0.7491 -0.1047 -0.3226
   16TAL    C7616188   3.238   1.596   0.547  0.4289  0.4279 -0.0024
   16TAL    C7716189   3.195   1.681   0.662  0.0459  0.8744  0.4307
   16TAL    C7816190   3.053   1.650   0.717 -0.1141  0.8302  0.6918
   16TAL    C7916191   3.039   1.718   0.853 -0.0909 -0.7696  0.5872
   16TAL    C8016192   2.907   1.683   0.918  0.2610  0.7261  0.2289
   17HTM    C8116193   3.178   1.237   0.789  0.1253  0.0926  0.1299
   17HTM    C8216194   3.083   1.316   0.845  0.1844  0.0453  0.3014
   17HTM    C8316195   2.971   1.243   0.900  0.1793  0.0039  0.2363
   17HTM    C8416196   2.983   1.108   0.887  0.1160  0.0197  0.0153
   17HTM     S916197   3.136   1.062   0.803  0.0577  0.0885 -0.1291
   18TAL    C8516198   2.862   1.321   0.977 -0.3135  0.2843  0.3825
   18TAL    C8616199   2.903   1.375   1.114 -0.0692 -0.5271  0.8623
   18TAL    C8716200   2.789   1.418   1.197  0.1107 -0.2220  0.1796
   18TAL    C8816201   2.846   1.447   1.341  0.3871 -0.5245 -0.5284
   18TAL    C8916202   2.723   1.471   1.429 -0.0204  0.0164 -0.3380
   18TAL    C9016203   2.738   1.481   1.579 -0.3338 -0.5917  0.1238
   19HTM    C9116204   2.900   0.999   0.935  0.2377  0.0218 -0.0366
   19HTM    C9216205   2.782   0.952   0.886  0.1156  0.2341  0.0562
   19HTM    C9316206   2.731   0.838   0.958  0.0097  0.2717  0.0416
   19HTM    C9416207   2.811   0.797   1.060  0.0512  0.0882 -0.0624
   19HTM    S1016208   2.958   0.901   1.075  0.2283 -0.1483 -0.1506
   20TAL    C9516209   2.591   0.786   0.916 -0.0128 -0.3500 -0.2911
   20TAL    C9616210   2.472   0.886   0.910  0.4790  0.2166  0.3011
   20TAL    C9716211   2.346   0.811   0.874  0.0184 -0.0329  0.3883
   20TAL    C9816212   2.294   0.700   0.971  0.1087  0.4480  0.7938
   20TAL    C9916213   2.245   0.744   1.109  0.3628 -0.1547  0.4342
   20TAL   C10016214   2.182   0.634   1.193  0.2786 -0.3679 -0.1271
   21HTM   C10116215   2.805   0.677   1.139 -0.1281  0.3828 -0.9110
   21HTM   C10216216   2.912   0.611   1.192  0.2514  0.4373 -1.6044
   21HTM   C10316217   2.879   0.483   1.249  0.6889  0.4179 -1.3912
   21HTM   C10416218   2.747   0.451   1.241  0.6431  0.3486 -0.5352
   21HTM    S1116219   2.653   0.582   1.158  0.0390  0.3021  0.0726
   22TAL   C10516220   2.994   0.399   1.310  0.0440  0.0790 -0.2496
   22TAL   C10616221   3.142   0.418   1.275  0.4336  0.4509  0.5595
   22TAL   C10716222   3.199   0.409   1.132 -0.4293  0.8884  0.0387
   22TAL   C10816223   3.332   0.484   1.120  0.1729 -0.6955  0.1682
   22TAL   C10916224   3.448   0.425   1.201 -0.2107  0.0179 -0.2449
   22TAL   C11016225   3.579   0.489   1.182 -0.2084 -0.0949  0.7476
   23HTM   C11116226   2.664   0.340   1.274  0.1781  0.0317 -0.0112
   23HTM   C11216227   2.690   0.206   1.272  0.4241  0.0752  0.2977
   23HTM   C11316228   2.576   0.124   1.303  0.5569 -0.0668  0.4147
   23HTM   C11416229   2.463   0.196   1.328  0.4118 -0.2186  0.1948
   23HTM    S1216230   2.492   0.373   1.314  0.0943 -0.1938 -0.1799
   24TAL   C11516231   2.584  -0.033   1.310 -0.1523 -0.0989 -0.5667
   24TAL   C11616232   2.703  -0.107   1.244  0.0134  0.0926 -0.2001
   24TAL   C11716233   2.834  -0.106   1.328  0.5368  0.0341  0.7814
   24TAL   C11816234   2.941  -0.198   1.272  0.4159  0.7587 -0.1026
   24TAL   C11916235   3.063  -0.210   1.363 -0.5419  0.9495  0.9412
   24TAL   C12016236   3.176  -0.291   1.302 -0.4317 -0.2157  0.0695
   25HTM   C12116237   2.319   0.162   1.338 -0.0362  0.4000  0.0772
   25HTM   C12216238   2.260   0.039   1.342  0.3955  0.2053  0.6189
   25HTM   C12316239   2.117   0.044   1.359  0.4110 -0.2360  0.9080
   25HTM   C12416240   2.067   0.170   1.367 -0.0086 -0.3779  0.5868
   25HTM    S1316241   2.198   0.294   1.355 -0.4598  0.0382 -0.1112
   26TAL   C12516242   2.025  -0.077   1.346 -0.0476 -0.7317  0.1929
   26TAL   C12616243   2.077  -0.217   1.334 -0.4809  0.2344  0.3974
   26TAL   C12716244   1.971  -0.320   1.366 -0.0563 -0.0342 -0.2437
   26TAL   C12816245   2.011  -0.451   1.430  0.3197  0.8365 -0.1227
   26TAL   C12916246   2.124  -0.535   1.357  0.3670  0.4328  0.0627
   26TAL   C13016247   2.129  -0.678   1.412 -0.0160  0.4085  0.2798
   27HTM   C13116248   1.929   0.221   1.371  0.4789  0.2202 -0.0839
   27HTM   C13216249   1.819   0.180   1.440  0.6908  0.1351  0.2052
   27HTM   C13316250   1.704   0.264   1.421  0.5565  0.0063  0.4509
   27HTM   C13416251   1.726   0.370   1.338  0.2422 -0.0066  0.3492
   27HTM    S1416252   1.895   0.371   1.276  0.0903  0.1438 -0.0680
   28TAL   C13516253   1.567   0.224   1.478 -0.2855 -0.2735  0.8075
   28TAL   C13616254   1.536   0.113   1.578  0.2290 -0.2128 -0.1457
   28TAL   C13716255   1.390   0.109   1.613 -0.2655  0.6884 -0.0893
   28TAL   C13816256   1.367   0.043   1.751  0.0214 -0.2623 -0.2302
   28TAL   C13916257   1.222   0.002   1.798  0.0983 -0.0399  0.2834
   28TAL   C14016258   1.162  -0.125   1.736 -0.4659  0.6008  0.3592
   29HTM   C14116259   1.642   0.481   1.294 -0.3858 -0.3306  0.6637
   29HTM   C14216260   1.689   0.599   1.245 -0.0749 -0.2545  1.1464
   29HTM   C14316261   1.586   0.695   1.215  0.1245 -0.1509  0.7903
   29HTM   C14416262   1.460   0.650   1.241 -0.0343 -0.1479  0.0361
   29HTM    S1516263   1.462   0.482   1.306 -0.4512 -0.2769 -0.2853
   30TAL   C14516264   1.617   0.833   1.168 -0.2091 -0.1319 -0.0946
   30TAL   C14616265   1.744   0.860   1.079 -0.6077  0.4965  0.0288
   30TAL   C14716266   1.767   0.999   1.018  0.3383  0.1908  0.4418
   30TAL   C14816267   1.820   1.108   1.111 -0.1833 -0.1840  0.0690
   30TAL   C14916268   1.953   1.081   1.190  0.2320  0.1802 -0.2998
   30TAL   C15016269   2.003   1.201   1.271 -0.1582  0.1167  0.0809
   31HTM   C15116270   1.326   0.699   1.204 -0.0594 -0.0231  0.0293
   31HTM   C15216271   1.217   0.623   1.176 -0.0135  0.0072 -0.2273
   31HTM   C15316272   1.108   0.697   1.118  0.0612  0.0760 -0.2809
   31HTM   C15416273   1.133   0.831   1.104  0.0722  0.0981 -0.0650
   31HTM    S1616274   1.299   0.873   1.161 -0.0117  0.0332  0.2248
   32TAL   C15516275   0.975   0.631   1.084  0.1357  0.2440  0.2645
   32TAL   C15616276   0.943   0.484   1.107  0.0117 -0.0327 -0.3547
   32TAL   C15716277   0.801   0.452   1.059 -0.2035  0.5147  0.5505
   32TAL   C15816278   0.762   0.298   1.061 -0.5072 -0.6200  0.1814
   32TAL   C15916279   0.796   0.230   1.195  0.1733 -0.0256 -0.1290
   32TAL   C16016280   0.759   0.081   1.166  0.3567  0.5462 -0.8404
   33HTM   C16116281   1.058   0.935   1.034 -0.3496 -0.6329 -0.0164
   33HTM   C16216282   1.015   1.048   1.096  0.1584 -0.4158 -0.0482
   33HTM   C16316283   0.918   1.122   1.019  0.5173  0.0194 -0.0845
   33HTM   C16416284   0.888   1.066   0.899  0.2829  0.1341 -0.0806
   33HTM    S1716285   0.980   0.913   0.873 -0.4147 -0.3021 -0.0302
   34TAL   C16516286   0.850   1.246   1.075 -0.1682  0.4778  0.0432
   34TAL   C16616287   0.925   1.360   1.141  0.4501  0.0672  0.6182
   34TAL   C16716288   1.024   1.433   1.050  0.6974 -0.0869 -0.9317
   34TAL   C16816289   1.092   1.554   1.113 -0.3046 -0.2054  0.5773
   34TAL   C16916290   1.155   1.630   1.002  0.5216 -1.0371 -0.1412
   34TAL   C17016291   1.233   1.757   1.024  0.2170 -0.0757  0.0122
   35HTM   C17116292   0.791   1.107   0.798 -0.0382  0.2627  0.3002
   35HTM   C17216293   0.792   1.070   0.667  0.6379  0.6701  0.1843
   35HTM   C17316294   0.682   1.122   0.591  0.7455  0.4849 -0.1015
   35HTM   C17416295   0.596   1.199   0.664  0.1515 -0.0639 -0.2036
   35HTM    S1816296   0.650   1.212   0.836 -0.5958 -0.3918  0.0554
   36TAL   C17516297   0.677   1.074   0.446 -0.0725  1.1303  0.0436
   36TAL   C17616298   0.634   1.160   0.320 -0.5342 -0.8479  0.0029
   36TAL   C17716299   0.684   1.074   0.201  0.1519 -0.1933 -0.0473
   36TAL   C17816300   0.643   1.107   0.057 -0.3526  0.2549  0.3701
   36TAL   C17916301   0.706   1.024  -0.049  0.6302  0.0027 -0.3982
   36TAL   C18016302   0.626   1.011  -0.171  0.7264 -0.0330  0.3127
   37HTM   C18116303   0.471   1.262   0.638  0.2118 -0.0464 -0.3690
   37HTM   C18216304   0.370   1.229   0.553  0.2301  0.0437 -0.4256
   37HTM   C18316305   0.263   1.326   0.550  0.1677 -0.0185 -0.2451
   37HTM   C18416306   0.284   1.433   0.633  0.1018 -0.1559 -0.0509
   37HTM    S1916307   0.440   1.419   0.722  0.1135 -0.2181 -0.0812
   38TAL   C18516308   0.133   1.308   0.474 -0.5875 -0.4691 -0.7814
   38TAL   C18616309   0.109   1.187   0.381 -0.1703  0.3274 -0.8457
   38TAL   C18716310   0.194   1.157   0.255  0.1699 -0.4550  0.5046
   38TAL   C18816311   0.119   1.100   0.133  0.5700 -0.0711  0.3809
   38TAL   C18916312   0.222   1.105   0.016  0.2249  0.4724 -0.2042
   38TAL   C19016313   0.166   1.040  -0.114  0.6201 -0.3901 -0.3203
   39HTM   C19116314   0.206   1.547   0.668 -0.0036 -0.0708 -0.0199
   39HTM   C19216315   0.087   1.550   0.734  0.1637 -0.0619  0.2882
   39HTM   C19316316   0.057   1.677   0.795  0.4640 -0.1487  0.6162
   39HTM   C19416317   0.154   1.771   0.776  0.5256 -0.2237  0.5582
   39HTM    S2016318   0.291   1.706   0.679  0.2067 -0.1902  0.0811
   40TAL   C19516319  -0.074   1.693   0.872  0.1601 -0.4635  0.0126
   40TAL   C19616320  -0.061   1.676   1.025  0.1602  0.1855 -0.7042
   40TAL   C19716321  -0.196   1.688   1.089  0.3016 -0.1265  0.1478
   40TAL   C19816322  -0.182   1.689   1.240  0.5635 -0.1800  0.3555
   40TAL   C19916323  -0.307   1.672   1.325  0.0444  0.1606 -0.1224
   40TAL   C20016324  -0.277   1.645   1.471 -0.5033  0.1709 -0.1437
   41HTM   C20116325   0.164   1.904   0.825 -0.1114  0.0929 -0.0889
   41HTM   C20216326   0.075   1.977   0.897  0.0869  0.3209 -0.0727
   41HTM   C20316327   0.130   2.098   0.952  0.3178  0.3467 -0.3573
   41HTM   C20416328   0.261   2.118   0.922  0.2956  0.1380 -0.5904
   41HTM    S2116329   0.327   1.983   0.821 -0.0212 -0.1089 -0.4677
   42TAL   C20516330   0.053   2.201   1.042  0.0869  0.5696  0.1805
   42TAL   C20616331  -0.075   2.162   1.127 -0.2258  0.2748  0.2420
   42TAL   C20716332  -0.056   2.059   1.232  0.0155 -0.4937  0.1806
   42TAL   C20816333  -0.167   2.060   1.334 -0.2341  0.1537 -0.4692
   42TAL   C20916334  -0.123   2.087   1.480  0.1134  0.0126  0.2772
   42TAL   C21016335  -0.021   1.994   1.550  0.0500 -0.0912 -0.3809
   43HTM   C21116336   0.355   2.231   0.953  0.0900  0.1551 -0.2179
   43HTM   C21216337   0.332   2.365   0.963  0.0792  0.1249  0.1976
   43HTM   C21316338   0.452   2.443   0.978  0.0852  0.1035  0.2639
   43HTM   C21416339   0.567   2.369   0.979  0.1005  0.1173 -0.1010
   43HTM    S2216340   0.532   2.193   0.962  0.1087  0.1588 -0.5603
   44TAL   C21516341   0.442   2.595   1.011 -0.0244  0.3945  0.5738
   44TAL   C21616342   0.316   2.683   0.998  0.4493  0.0029  0.3457
   44TAL   C21716343   0.223   2.665   0.879  0.2009  0.2403 -0.1553
   44TAL   C21816344   0.083   2.738   0.882 -0.5684  0.3225  0.5210
   44TAL   C21916345  -0.013   2.691   0.996 -0.0564 -0.0591  0.1657
   44TAL   C22016346  -0.069   2.548   0.999  0.1771  0.2543  0.6088
   45HTM   C22116347   0.705   2.407   1.002  0.1593 -0.1131  0.1360
   45HTM   C22216348   0.807   2.324   1.040  0.3048 -0.2530 -0.5466
   45HTM   C22316349   0.936   2.388   1.044  0.3126 -0.2549 -0.7498
   45HTM   C22416350   0.933   2.520   1.009  0.1731 -0.1165 -0.2220
   45HTM    S2316351   0.766   2.574   0.968  0.0199  0.0282  0.5787
   46TAL   C22516352   1.062   2.313   1.102 -0.8755 -0.3042  0.1145
   46TAL   C22616353   1.058   2.165   1.156  0.0159 -0.0649 -0.1202
   46TAL   C22716354   1.193   2.103   1.188 -0.4692 -1.0431  0.3371
   46TAL   C22816355   1.273   2.168   1.301 -0.3177 -0.5001  0.3813
   46TAL   C22916356   1.264   2.098   1.435 -0.6268  0.3772 -0.1891
   46TAL   C23016357   1.332   2.185   1.540 -0.0441 -0.5488 -0.5346
   47HTM   C23116358   1.035   2.623   0.993  0.1162  0.3415 -0.2147
   47HTM   C23216359   1.006   2.748   0.944  0.3318  0.3545 -0.3081
   47HTM   C23316360   1.119   2.838   0.945  0.4223  0.2394 -0.1360
   47HTM   C23416361   1.233   2.782   0.995  0.2755  0.1387  0.0886
   47HTM    S2416362   1.207   2.611   1.045  0.0097  0.1817  0.1002
   48TAL   C23516363   1.107   2.976   0.905  0.1931 -0.1174 -0.2010
   48TAL   C23616364   1.006   3.004   0.797 -0.4773  0.1819  0.3932
   48TAL   C23716365   1.017   3.154   0.764 -0.4363  0.0484 -0.1497
   48TAL   C23816366   0.887   3.206   0.702 -0.5551  0.1070  0.4090
   48TAL   C23916367   0.892   3.348   0.641 -0.3789 -0.7480  0.9961
   48TAL   C24016368   0.754   3.384   0.582 -0.4497 -0.3069  0.2527
    1HTM     C116369   8.814   8.383   5.597 -0.3091  0.2096  0.4014
    1HTM     C216370   8.791   8.501   5.661  0.0119  0.2952  0.3626
    1HTM     C316371   8.880   8.526   5.771  0.3562  0.2918  0.0842
    1HTM     C416372   8.972   8.427   5.790  0.2988  0.2037 -0.0897
    1HTM     S116373   8.952   8.294   5.670 -0.1992  0.1176  0.0862
    2TAL     C516374   8.865   8.650   5.859  0.8664  0.9759 -0.5143
    2TAL     C616375   8.733   8.740   5.833 -0.6457  0.1884  0.0088
    2TAL     C716376   8.734   8.868   5.907 -0.5620 -0.0645  1.1998
    2TAL     C816377   8.604   8.938   5.867 -0.4265  0.4031 -0.4521
    2TAL     C916378   8.578   9.074   5.944 -0.2480  0.0789 -0.4782
    2TAL    C1016379   8.445   9.137   5.929 -0.3325  0.4273 -0.2798
    3HTM    C1116380   9.065   8.402   5.897 -0.2233  0.0186  0.3928
    3HTM    C1216381   9.087   8.284   5.961 -0.1213  0.0319  0.3841
    3HTM    C1316382   9.181   8.293   6.070  0.2847 -0.0048  0.0410
    3HTM    C1416383   9.231   8.419   6.089  0.4924 -0.0463 -0.2121
    3HTM     S216384   9.162   8.536   5.970  0.1888 -0.0435 -0.0351
    4TAL    C1516385   9.224   8.165   6.143  0.1246 -0.0610  0.0982
    4TAL    C1616386   9.325   8.084   6.064 -0.6773 -0.3008  0.1564
    4TAL    C1716387   9.348   7.958   6.149 -0.0086 -0.3205 -0.1630
    4TAL    C1816388   9.455   7.856   6.110 -0.0639  0.3801  0.1493
    4TAL    C1916389   9.481   7.762   6.225  0.7682 -0.0313 -0.8359
    4TAL    C2016390   9.603   7.672   6.220 -0.5363 -0.2383 -0.3126
    5HTM    C2116391   9.325   8.473   6.191 -0.2354 -0.0603  0.0668
    5HTM    C2216392   9.338   8.604   6.228 -0.5099 -0.0582  0.1583
    5HTM    C2316393   9.446   8.627   6.321 -0.6206  0.0887  0.2503
    5HTM    C2416394   9.515   8.514   6.355 -0.4304  0.1978  0.2292
    5HTM     S316395   9.449   8.369   6.271 -0.0942  0.1237  0.0905
    6TAL    C2516396   9.469   8.764   6.375 -0.1491 -0.6524  0.2381
    6TAL    C2616397   9.401   8.884   6.309  0.9761  0.1543 -0.1170
    6TAL    C2716398   9.364   9.005   6.393 -0.3619 -0.4222  0.0223
    6TAL    C2816399   9.481   9.072   6.467 -0.0910 -0.3603 -0.6655
    6TAL    C2916400   9.439   9.186   6.556  0.0592  0.1693 -0.0212
    6TAL    C3016401   9.552   9.272   6.619  0.0432  0.8519  0.1234
    7HTM    C3116402   9.635   8.491   6.430  0.1011 -0.1662  0.2047
    7HTM    C3216403   9.694   8.560   6.531 -0.0503 -0.2995  0.3855
    7HTM    C3316404   9.820   8.505   6.574  0.0083 -0.2112  0.3288
    7HTM    C3416405   9.857   8.393   6.506  0.2044 -0.0101  0.1044
    7HTM     S416406   9.735   8.349   6.380  0.3313  0.0831 -0.0529
    8TAL    C3516407   9.910   8.576   6.668  0.3093  0.0430 -0.3108
    8TAL    C3616408   9.932   8.727   6.653  0.2592 -0.1833  0.2019
    8TAL    C3716409  10.036   8.799   6.747 -0.2283  0.2985 -0.0170
    8TAL    C3816410  10.172   8.743   6.787  0.5307  0.2192  0.0157
    8TAL    C3916411  10.256   8.698   6.670 -0.0800  0.3235 -0.3921
    8TAL    C4016412  10.401   8.663   6.694 -0.1660  0.3531  0.2743
    9HTM    C4116413   9.975   8.310   6.509  0.0762 -0.1514  0.2977
    9HTM    C4216414   9.973   8.177   6.483 -0.1988 -0.1287  0.2074
    9HTM    C4316415  10.102   8.121   6.455 -0.3465 -0.3228 -0.1056
    9HTM    C4416416  10.204   8.212   6.461 -0.1844 -0.4930 -0.2539
    9HTM     S516417  10.142   8.376   6.502  0.1704 -0.4212 -0.0080
   10TAL    C4516418  10.119   7.968   6.429  0.0537  0.5683 -0.6653
   10TAL    C4616419  10.058   7.915   6.299  0.2254  0.2836  0.3510
   10TAL    C4716420  10.036   7.759   6.275  0.3368 -0.1726 -0.0699
   10TAL    C4816421   9.950   7.686   6.376  0.1850  0.0154  0.6324
   10TAL    C4916422   9.930   7.539   6.354 -0.2748  0.2003  1.3328
   10TAL    C5016423   9.859   7.457   6.465 -0.2845  0.5656 -0.1468
   11HTM    C5116424  10.346   8.195   6.443  0.2856  0.1976 -0.0175
   11HTM    C5216425  10.434   8.292   6.482  0.3763  0.2995 -0.4702
   11HTM    C5316426  10.571   8.262   6.448  0.2838  0.2675 -0.8173
   11HTM    C5416427  10.587   8.143   6.383  0.1225  0.1430 -0.6290
   11HTM     S616428  10.430   8.059   6.360  0.0746  0.0536  0.0064
   12TAL    C5516429  10.680   8.355   6.497  0.6541  0.1847 -0.0597
   12TAL    C5616430  10.668   8.403   6.646  0.6841  1.1868 -0.3585
   12TAL    C5716431  10.762   8.514   6.682 -0.3417 -0.0774 -0.2312
   12TAL    C5816432  10.767   8.558   6.827 -0.4081  0.0895  0.1089
   12TAL    C5916433  10.788   8.439   6.923  0.0718 -0.4728 -0.6558
   12TAL    C6016434  10.808   8.468   7.078  0.0131 -0.2365  0.1993
   13HTM    C6116435  10.703   8.075   6.333 -0.4849  0.0286  0.0470
   13HTM    C6216436  10.827   8.065   6.390 -0.4783  0.3090  0.0834
   13HTM    C6316437  10.912   7.967   6.328 -0.2341  0.5095  0.1018
   13HTM    C6416438  10.853   7.903   6.223 -0.0544  0.3820  0.0797
   13HTM     S716439  10.685   7.961   6.195 -0.1808 -0.0043  0.0332
   14TAL    C6516440  11.040   7.939   6.402  0.4092 -0.5894  0.3683
   14TAL    C6616441  11.053   7.818   6.491 -0.0973  0.0705  0.2092
   14TAL    C6716442  11.196   7.821   6.541 -0.4361 -0.3089  0.0922
   14TAL    C6816443  11.239   7.713   6.643 -0.6585 -0.4757  0.3057
   14TAL    C6916444  11.369   7.755   6.718  0.3495  0.3004 -0.0573
   14TAL    C7016445  11.415   7.650   6.820  0.2524 -0.1980 -0.1402
   15HTM    C7116446  10.899   7.788   6.138  0.4784 -0.0641  0.3368
   15HTM    C7216447  10.820   7.694   6.079  0.4136  0.2930 -0.1519
   15HTM    C7316448  10.893   7.583   6.022  0.3313  0.4888 -0.6452
   15HTM    C7416449  11.028   7.593   6.038  0.3334  0.2808 -0.5324
   15HTM     S816450  11.074   7.743   6.126  0.4401 -0.1822  0.2111
   16TAL    C7516451  10.808   7.478   5.949  0.0381  0.1912  0.0722
   16TAL    C7616452  10.836   7.444   5.801 -0.5498 -0.0657 -0.2108
   16TAL    C7716453  10.849   7.566   5.712 -0.4557 -0.7641  0.1443
   16TAL    C7816454  10.882   7.524   5.572 -0.2379 -0.5460 -0.0165
   16TAL    C7916455  10.853   7.636   5.476 -0.6288  0.0843 -0.1578
   16TAL    C8016456  10.896   7.610   5.331 -0.5034  0.3356  0.2080
   17HTM    C8116457  11.137   7.507   6.004 -0.0510 -0.0201 -0.0079
   17HTM    C8216458  11.265   7.538   5.966 -0.0242  0.0100  0.1051
   17HTM    C8316459  11.345   7.424   5.934  0.0885  0.0191  0.3598
   17HTM    C8416460  11.280   7.305   5.949  0.1480 -0.0038  0.4408
   17HTM     S916461  11.110   7.329   6.003  0.0651 -0.0389  0.2004
   18TAL    C8516462  11.494   7.429   5.900 -0.8522 -0.7508  0.3708
   18TAL    C8616463  11.575   7.560   5.894  1.0516 -0.6639  0.0380
   18TAL    C8716464  11.552   7.648   5.774 -0.5141  0.4683  0.5799
   18TAL    C8816465  11.616   7.790   5.774 -0.2891 -0.2578 -0.2123
   18TAL    C8916466  11.598   7.887   5.890 -0.3338  0.0257 -0.9043
   18TAL    C9016467  11.459   7.959   5.894 -0.4683  0.4573  0.1060
   19HTM    C9116468  11.314   7.165   5.914  0.1026  0.1040  0.3620
   19HTM    C9216469  11.222   7.065   5.905  0.0491  0.1917 -0.0858
   19HTM    C9316470  11.277   6.939   5.862  0.0354  0.2811 -0.3655
   19HTM    C9416471  11.411   6.944   5.838  0.0784  0.2619 -0.1308
   19HTM    S1016472  11.478   7.108   5.868  0.1401  0.1283  0.4665
   20TAL    C9516473  11.181   6.811   5.850 -0.9351 -0.1250  0.9250
   20TAL    C9616474  11.044   6.795   5.916 -0.5934  0.0055  0.4075
   20TAL    C9716475  10.942   6.890   5.855  0.1358 -0.3915 -0.1392
   20TAL    C9816476  10.792   6.856   5.895 -0.6078 -0.6247  0.4985
   20TAL    C9916477  10.726   6.726   5.868 -0.1405 -0.0407 -0.0081
   20TAL   C10016478  10.696   6.692   5.721  0.3005  0.0341 -0.1307
   21HTM   C10116479  11.501   6.840   5.788 -0.0228 -0.0520 -0.0624
   21HTM   C10216480  11.616   6.865   5.719  0.0829  0.0796  0.1609
   21HTM   C10316481  11.697   6.748   5.696  0.2428  0.1652  0.2809
   21HTM   C10416482  11.643   6.634   5.746  0.2591  0.0986  0.1487
   21HTM    S1116483  11.486   6.665   5.829  0.0724 -0.0783 -0.1393
   22TAL   C10516484  11.837   6.770   5.631 -0.0759 -0.2646 -0.3559
   22TAL   C10616485  11.952   6.850   5.697  0.0472 -0.2453 -0.3236
   22TAL   C10716486  11.940   6.998   5.698  0.8296 -0.3790  0.4424
   22TAL   C10816487  11.894   7.066   5.560 -0.4602  0.5913  0.4199
   22TAL   C10916488  11.854   7.216   5.552  0.3927  0.1388  0.7144
   22TAL   C11016489  11.748   7.249   5.662  0.5941  0.0506 -0.5556
   23HTM   C11116490  11.691   6.496   5.738  0.1436 -0.2369 -0.1473
   23HTM   C11216491  11.818   6.462   5.701  0.0316 -0.3591 -0.4237
   23HTM   C11316492  11.843   6.320   5.706 -0.0658 -0.3757 -0.3905
   23HTM   C11416493  11.736   6.246   5.747 -0.0283 -0.2663 -0.0887
   23HTM    S1216494  11.593   6.350   5.782  0.1346 -0.1326  0.1791
   24TAL   C11516495  11.977   6.268   5.654 -0.1933 -0.0675 -0.2261
   24TAL   C11616496  12.108   6.303   5.727  0.4591  0.0977  0.4600
   24TAL   C11716497  12.192   6.181   5.753  0.0931 -0.0600 -0.2211
   24TAL   C11816498  12.319   6.211   5.831  0.1620 -0.7070 -0.2612
   24TAL   C11916499  12.409   6.099   5.866 -0.1030  0.0431 -0.0340
   24TAL   C12016500  12.551   6.149   5.915 -0.6919 -0.1780 -0.1982
   25HTM   C12116501  11.722   6.102   5.766  0.2185  0.3097 -0.0186
   25HTM   C12216502  11.605   6.034   5.787  0.1465  0.4389  0.0000
   25HTM   C12316503  11.622   5.892   5.800  0.0160  0.4432  0.2155
   25HTM   C12416504  11.752   5.851   5.790 -0.0116  0.3171  0.3616
   25HTM    S1316505  11.863   5.990   5.761  0.1262  0.1823  0.2375
   26TAL   C12516506  11.493   5.814   5.826 -0.3223  0.1468 -0.4174
   26TAL   C12616507  11.493   5.658   5.818  0.0201 -0.0678 -0.0529
   26TAL   C12716508  11.361   5.582   5.837  0.2125  0.0838 -0.0062
   26TAL   C12816509  11.345   5.435   5.813 -0.5244 -0.2541 -0.8523
   26TAL   C12916510  11.457   5.341   5.855  1.0228 -0.0376 -0.1360
   26TAL   C13016511  11.431   5.191   5.821 -0.4647  0.0234 -0.0339
   27HTM   C13116512  11.806   5.723   5.793  0.1200  0.0111  0.2042
   27HTM   C13216513  11.883   5.686   5.899 -0.2064 -0.1268  0.3910
   27HTM   C13316514  11.936   5.553   5.889 -0.0161 -0.0429  0.2928
   27HTM   C13416515  11.901   5.488   5.774  0.4552  0.1592  0.0305
   27HTM    S1416516  11.796   5.591   5.670  0.6972  0.2596 -0.1132
   28TAL   C13516517  12.005   5.502   6.013  0.2381 -0.7018 -0.3084
   28TAL   C13616518  12.144   5.560   6.034 -0.4525 -0.2637 -0.1784
   28TAL   C13716519  12.256   5.524   5.936 -0.3415 -0.6017 -0.0079
   28TAL   C13816520  12.278   5.374   5.926 -0.3531  0.0363  0.9739
   28TAL   C13916521  12.365   5.330   5.815  0.2034  0.0365  0.0302
   28TAL   C14016522  12.421   5.187   5.824  0.1295  0.2037  0.4751
   29HTM   C14116523  11.950   5.368   5.717 -0.3558  0.2647 -0.0618
   29HTM   C14216524  11.924   5.244   5.768 -0.2431  0.3672  0.2398
   29HTM   C14316525  12.003   5.139   5.710 -0.0877  0.3076  0.5548
   29HTM   C14416526  12.090   5.182   5.614 -0.0821  0.1605  0.4931
   29HTM    S1516527  12.077   5.361   5.589 -0.2740  0.0844  0.0294
   30TAL   C14516528  11.996   5.001   5.766  0.3171 -0.0980 -0.1006
   30TAL   C14616529  12.006   4.990   5.915 -0.4079  0.1797 -0.2741
   30TAL   C14716530  11.947   4.868   5.980  0.0434  0.3167  0.4647
   30TAL   C14816531  12.031   4.818   6.097 -0.1030 -0.0348  0.0903
   30TAL   C14916532  11.968   4.701   6.153  0.3332  0.1662  0.2212
   30TAL   C15016533  12.044   4.653   6.283 -0.4510 -0.3077 -0.0217
   31HTM   C15116534  12.205   5.113   5.552 -0.1750  0.5085 -0.2369
   31HTM   C15216535  12.235   4.980   5.546 -0.7526  0.3898 -0.5643
   31HTM   C15316536  12.361   4.952   5.481 -0.9550 -0.0107 -0.7885
   31HTM   C15416537  12.427   5.064   5.438 -0.5319 -0.1980 -0.6324
   31HTM    S1616538  12.334   5.214   5.477  0.1607  0.1203 -0.1864
   32TAL   C15516539  12.405   4.803   5.464  0.1277  0.1868 -0.3314
   32TAL   C15616540  12.402   4.714   5.590 -0.5878 -0.1098  0.0344
   32TAL   C15716541  12.419   4.558   5.590  0.6242  0.1348  0.2577
   32TAL   C15816542  12.538   4.499   5.512 -0.5587 -0.3953 -0.0265
   32TAL   C15916543  12.592   4.358   5.548  0.7169 -0.5957  0.2112
   32TAL   C16016544  12.703   4.305   5.465 -0.3865  0.2462 -0.2197
   33HTM   C16116545  12.556   5.078   5.374 -0.1120 -0.0806  0.2849
   33HTM   C16216546  12.648   4.978   5.366  0.0181 -0.0072  0.7935
   33HTM   C16316547  12.772   5.018   5.306  0.1591 -0.0181  1.0769
   33HTM   C16416548  12.775   5.149   5.269  0.1365 -0.0994  0.7849
   33HTM    S1716549  12.620   5.232   5.307 -0.0662 -0.1695  0.1239
   34TAL   C16516550  12.889   4.923   5.284 -0.5580  0.1875  0.4548
   34TAL   C16616551  12.861   4.806   5.189  0.1306 -0.8393 -0.3216
   34TAL   C16716552  12.985   4.744   5.134 -0.5815  0.6213  0.0055
   34TAL   C16816553  13.064   4.832   5.043 -0.1384 -0.1190  0.0491
   34TAL   C16916554  13.210   4.792   5.049 -0.1481  0.4525 -0.6429
   34TAL   C17016555  13.299   4.899   4.979  0.7192 -0.1980  0.0629
   35HTM   C17116556  12.879   5.225   5.197  0.2160 -0.1411  0.1620
   35HTM   C17216557  12.936   5.198   5.076 -0.0815  0.1612 -0.0501
   35HTM   C17316558  13.037   5.292   5.037 -0.3455  0.3934 -0.1740
   35HTM   C17416559  13.057   5.392   5.127 -0.2496  0.2681 -0.0568
   35HTM    S1816560  12.949   5.374   5.271  0.1855 -0.1564  0.2216
   36TAL   C17516561  13.102   5.266   4.899  0.1098  0.0624 -0.2464
   36TAL   C17616562  13.121   5.382   4.800 -0.1237  0.1085  0.0247
   36TAL   C17716563  12.991   5.434   4.722 -0.7831  0.8623 -0.0866
   36TAL   C17816564  12.855   5.454   4.791 -0.3314  0.5874  0.2142
   36TAL   C17916565  12.846   5.550   4.912 -0.1548 -0.0902  0.3739
   36TAL   C18016566  12.714   5.545   4.981  0.0425  0.0718 -0.4072
   37HTM   C18116567  13.148   5.505   5.123 -0.4438  0.0442 -0.6760
   37HTM   C18216568  13.117   5.626   5.178 -0.5150  0.1402 -0.9239
   37HTM   C18316569  13.212   5.730   5.148 -0.1960 -0.0389 -0.5517
   37HTM   C18416570  13.315   5.688   5.069  0.1182 -0.2709 -0.0200
   37HTM    S1916571  13.301   5.514   5.028  0.0352 -0.2816  0.0525
   38TAL   C18516572  13.178   5.864   5.210 -0.5218  0.3216  0.2121
   38TAL   C18616573  13.062   5.943   5.151 -0.0886 -0.4824  0.2787
   38TAL   C18716574  12.917   5.891   5.152  0.4436  0.0289  0.0960
   38TAL   C18816575  12.850   5.902   5.289 -0.2959  0.4195  0.1802
   38TAL   C18916576  12.705   5.857   5.293 -0.0637  0.5460 -0.4353
   38TAL   C19016577  12.664   5.819   5.437 -0.1218 -0.0443  0.3995
   39HTM   C19116578  13.430   5.762   5.018 -0.0276 -0.0927  0.2860
   39HTM   C19216579  13.541   5.708   4.959 -0.0100 -0.1204  0.3448
   39HTM   C19316580  13.647   5.803   4.938 -0.0501 -0.1030  0.2189
   39HTM   C19416581  13.618   5.929   4.981 -0.0983 -0.0615  0.0637
   39HTM    S2016582  13.452   5.937   5.052 -0.0967 -0.0413  0.0651
   40TAL   C19516583  13.783   5.758   4.878  0.0371  0.0718 -0.0403
   40TAL   C19616584  13.879   5.695   4.985  0.1268  0.1483 -0.1883
   40TAL   C19716585  14.014   5.680   4.912 -0.1244  0.8451  0.1330
   40TAL   C19816586  14.100   5.581   4.982 -0.3607 -0.3390  0.5949
   40TAL   C19916587  14.203   5.520   4.892 -0.4053 -0.4353 -0.4318
   40TAL   C20016588  14.274   5.415   4.973 -0.3632 -0.3037 -1.1583
   41HTM   C20116589  13.697   6.050   4.981  0.0340 -0.0638  0.3420
   41HTM   C20216590  13.652   6.175   4.952 -0.0553 -0.0949  0.3483
   41HTM   C20316591  13.754   6.277   4.960 -0.0620 -0.0658  0.0708
   41HTM   C20416592  13.876   6.229   4.995  0.0220 -0.0130 -0.1474
   41HTM    S2116593  13.873   6.051   5.021  0.1171  0.0045 -0.0183
   42TAL   C20516594  13.709   6.426   4.942 -0.3223 -0.3025 -0.0894
   42TAL   C20616595  13.700   6.513   5.066  0.3477  0.5485 -0.2235
   42TAL   C20716596  13.648   6.652   5.028  0.6021 -0.4787  0.0425
   42TAL   C20816597  13.601   6.750   5.146  0.4595 -0.2854 -0.4160
   42TAL   C20916598  13.712   6.799   5.240 -0.3399  0.2338  0.2969
   42TAL   C21016599  13.647   6.863   5.363 -0.4727 -0.1318 -0.2227
   43HTM   C21116600  14.005   6.300   5.009  0.2431 -0.0403  0.2495
   43HTM   C21216601  14.057   6.384   4.914  0.1254  0.1400  0.3443
   43HTM   C21316602  14.188   6.434   4.947  0.0429  0.3102  0.4144
   43HTM   C21416603  14.236   6.388   5.066  0.0981  0.2597  0.3732
   43HTM    S2216604  14.119   6.277   5.147  0.2594 -0.0089  0.2414
   44TAL   C21516605  14.256   6.533   4.847 -0.2068  0.1090 -0.4880
   44TAL   C21616606  14.195   6.673   4.848 -0.0293 -0.2328 -0.0701
   44TAL   C21716607  14.201   6.761   4.976 -0.3249 -0.7816  0.2447
   44TAL   C21816608  14.330   6.812   5.030  0.2372 -0.4535 -0.5759
   44TAL   C21916609  14.443   6.865   4.948 -0.5458 -0.3294  1.0902
   44TAL   C22016610  14.573   6.876   5.027  0.0292 -0.4405  0.6063
   45HTM   C22116611  14.353   6.437   5.141 -0.1886 -0.0668  0.4113
   45HTM   C22216612  14.349   6.485   5.268 -0.1202  0.2115  0.3090
   45HTM   C22316613  14.472   6.546   5.312 -0.0830  0.2670  0.1264
   45HTM   C22416614  14.570   6.544   5.217 -0.1233  0.0310  0.0893
   45HTM    S2316615  14.514   6.465   5.065 -0.2115 -0.2819  0.2842
   46TAL   C22516616  14.482   6.598   5.456 -0.2364  0.3645  0.1510
   46TAL   C22616617  14.435   6.739   5.484 -0.1868 -0.2709  0.0855
   46TAL   C22716618  14.485   6.845   5.393 -0.1356  0.4281 -0.3365
   46TAL   C22816619  14.495   6.986   5.451 -0.5950 -0.4882 -0.7400
   46TAL   C22916620  14.532   7.090   5.347 -0.2241  0.3242  0.1911
   46TAL   C23016621  14.567   7.217   5.420 -0.2138  0.4469  0.1520
   47HTM   C23116622  14.707   6.595   5.232 -0.2594  0.2766 -0.2030
   47HTM   C23216623  14.775   6.639   5.341 -0.3550  0.1411 -0.0880
   47HTM   C23316624  14.909   6.684   5.312 -0.1323 -0.3386  0.1729
   47HTM   C23416625  14.942   6.674   5.180  0.1329 -0.5685  0.2563
   47HTM    S2416626  14.806   6.607   5.082  0.1222 -0.1942  0.0105
   48TAL   C23516627  15.007   6.735   5.416 -0.8021  0.8233 -0.0253
   48TAL   C23616628  14.965   6.857   5.504 -0.1176  0.0568  0.3898
   48TAL   C23716629  14.967   6.991   5.439 -0.5818  0.4322 -0.1635
   48TAL   C23816630  14.928   7.025   5.295 -0.0711 -0.2101 -0.1936
   48TAL   C23916631  14.948   7.175   5.277  0.9835 -0.1129  0.0060
   48TAL   C24016632  14.906   7.232   5.143 -0.0080  0.4634  0.1341
    1HTM     C116633   0.346   8.172   7.707 -0.0356 -0.1415 -0.0306
    1HTM     C216634   0.347   8.097   7.593 -0.1474 -0.0181 -0.1130
    1HTM     C316635   0.240   8.129   7.502 -0.3341 -0.0291  0.0999
    1HTM     C416636   0.158   8.229   7.546 -0.3648 -0.1615  0.3445
    1HTM     S116637   0.210   8.291   7.707 -0.1586 -0.2826  0.3252
    2TAL     C516638   0.236   8.054   7.372  0.2539  0.1523 -0.5815
    2TAL     C616639   0.141   7.936   7.382  0.3113 -0.0045 -0.1422
    2TAL     C716640   0.153   7.854   7.250 -0.0005  0.8798 -0.5522
    2TAL     C816641   0.026   7.772   7.223 -0.2097  0.3457 -0.2331
    2TAL     C916642   0.039   7.683   7.102  0.5368 -0.3483  0.2838
    2TAL    C1016643  -0.102   7.631   7.074  0.1720  0.3601 -0.3200
    3HTM    C1116644   0.036   8.277   7.487 -0.0178  0.1337 -0.0603
    3HTM    C1216645   0.005   8.314   7.360 -0.2999  0.0677 -0.0103
    3HTM    C1316646  -0.128   8.367   7.345 -0.3366  0.0486  0.2546
    3HTM    C1416647  -0.198   8.371   7.462 -0.0821  0.0998  0.4066
    3HTM     S216648  -0.101   8.307   7.600  0.2257  0.1768  0.2262
    4TAL    C1516649  -0.162   8.397   7.197 -0.3528  0.0388  0.0736
    4TAL    C1616650  -0.267   8.498   7.161  0.5464  0.1618  0.1235
    4TAL    C1716651  -0.363   8.449   7.054  0.7446  0.8964 -0.0111
    4TAL    C1816652  -0.464   8.550   7.009  0.4674 -0.8124 -0.7866
    4TAL    C1916653  -0.572   8.598   7.107  0.2505  0.3792  0.0720
    4TAL    C2016654  -0.664   8.702   7.039 -0.2303  0.0240  0.2275
    5HTM    C2116655  -0.333   8.415   7.483  0.1147 -0.3314  0.0878
    5HTM    C2216656  -0.372   8.508   7.575 -0.0215 -0.2398 -0.0613
    5HTM    C2316657  -0.515   8.522   7.587 -0.0372 -0.1678 -0.3455
    5HTM    C2416658  -0.585   8.440   7.503  0.0854 -0.2037 -0.4134
    5HTM     S316659  -0.475   8.337   7.403  0.2330 -0.3323 -0.1209
    6TAL    C2516660  -0.571   8.627   7.686 -0.2388 -0.4132  0.1202
    6TAL    C2616661  -0.537   8.592   7.835  1.1958  0.4264  0.7639
    6TAL    C2716662  -0.594   8.696   7.936 -0.0828 -0.5999  0.2109
    6TAL    C2816663  -0.507   8.827   7.950  0.1565 -0.3638  0.7525
    6TAL    C2916664  -0.560   8.928   8.047 -0.0675  0.5028 -0.8332
    6TAL    C3016665  -0.470   9.053   8.053 -0.9488 -0.3850 -0.1760
    7HTM    C3116666  -0.723   8.423   7.470  0.0989  0.0337 -0.2141
    7HTM    C3216667  -0.763   8.353   7.360  0.0315  0.3095 -0.3679
    7HTM    C3316668  -0.903   8.367   7.330  0.0153  0.3924 -0.2530
    7HTM    C3416669  -0.970   8.448   7.416  0.0692  0.1806 -0.0114
    7HTM     S416670  -0.861   8.513   7.544  0.1463 -0.1428  0.0901
    8TAL    C3516671  -0.961   8.273   7.228 -0.3068 -0.0921 -0.5434
    8TAL    C3616672  -0.902   8.311   7.090 -0.2129  0.7064 -0.0164
    8TAL    C3716673  -0.945   8.437   7.014  0.1053 -0.4051 -0.3898
    8TAL    C3816674  -1.092   8.442   6.990 -0.3085 -0.0491 -0.0709
    8TAL    C3916675  -1.140   8.576   6.925  0.1880  0.2729 -0.0098
    8TAL    C4016676  -1.150   8.694   7.023  0.2113 -0.5176 -0.4666
    9HTM    C4116677  -1.101   8.508   7.413  0.5408  0.1391  0.1255
    9HTM    C4216678  -1.217   8.444   7.382  0.6678 -0.1593  0.2675
    9HTM    C4316679  -1.332   8.530   7.379  0.4497 -0.4473  0.3643
    9HTM    C4416680  -1.304   8.660   7.408  0.1566 -0.3678  0.2958
    9HTM     S516681  -1.128   8.684   7.441  0.1330  0.0796  0.1026
   10TAL    C4516682  -1.466   8.470   7.334 -0.2440  0.2025 -0.1033
   10TAL    C4616683  -1.495   8.472   7.183  0.4164  0.3002  0.6210
   10TAL    C4716684  -1.590   8.366   7.133 -1.3436 -0.2445  0.9675
   10TAL    C4816685  -1.728   8.349   7.192 -0.1069 -0.0611 -0.5785
   10TAL    C4916686  -1.837   8.453   7.183  0.7031 -0.0035 -0.1078
   10TAL    C5016687  -1.833   8.564   7.286 -0.6176  0.2730 -0.1166
   11HTM    C5116688  -1.388   8.778   7.424 -0.6625 -0.6229  0.4445
   11HTM    C5216689  -1.359   8.892   7.494 -0.5193 -0.9632  0.9463
   11HTM    C5316690  -1.464   8.990   7.490 -0.0687 -0.4835  0.6912
   11HTM    C5416691  -1.573   8.951   7.418  0.1317  0.2222 -0.0057
   11HTM     S616692  -1.551   8.786   7.348 -0.2361  0.3365 -0.3958
   12TAL    C5516693  -1.457   9.120   7.570 -0.5743  0.0539 -0.2162
   12TAL    C5616694  -1.338   9.157   7.656  0.1848 -0.1468 -0.5923
   12TAL    C5716695  -1.207   9.179   7.581  0.9432  0.2660  0.3387
   12TAL    C5816696  -1.109   9.256   7.671 -0.4379  0.4499 -0.9761
   12TAL    C5916697  -0.982   9.282   7.596 -0.4558 -0.4185 -0.5183
   12TAL    C6016698  -0.908   9.409   7.634  0.2408  0.3474  0.3447
   13HTM    C6116699  -1.695   9.024   7.377 -0.4942 -0.1718 -0.1360
   13HTM    C6216700  -1.774   8.973   7.278 -0.6998  0.0935 -0.1097
   13HTM    C6316701  -1.874   9.065   7.230 -0.6030  0.3270  0.1342
   13HTM    C6416702  -1.871   9.186   7.293 -0.3231  0.2395  0.2939
   13HTM     S716703  -1.741   9.194   7.417 -0.1590 -0.1474  0.1479
   14TAL    C6516704  -1.964   9.024   7.111  0.1746 -0.1402  0.2437
   14TAL    C6616705  -2.019   8.874   7.103  0.6662 -0.1488  0.2585
   14TAL    C6716706  -2.080   8.840   6.968 -0.3023  0.9793  0.0331
   14TAL    C6816707  -2.123   8.698   6.968  0.3197  0.2850  0.2363
   14TAL    C6916708  -2.233   8.655   7.065 -0.2877  0.3260 -0.6171
   14TAL    C7016709  -2.290   8.507   7.043 -0.6961 -0.2286 -0.3553
   15HTM    C7116710  -1.955   9.305   7.276  0.3390  0.3302 -0.6589
   15HTM    C7216711  -1.935   9.425   7.337  0.3798  0.6646 -1.3263
   15HTM    C7316712  -2.043   9.519   7.318  0.1688  0.4083 -1.3978
   15HTM    C7416713  -2.145   9.470   7.243 -0.0330 -0.1216 -0.7850
   15HTM     S816714  -2.114   9.300   7.190  0.0284 -0.3396 -0.0647
   16TAL    C7516715  -2.033   9.655   7.372  0.1767 -0.0698 -0.0186
   16TAL    C7616716  -1.948   9.691   7.496 -0.4790  0.0434  0.3375
   16TAL    C7716717  -1.900   9.839   7.501 -0.8063 -0.4662 -0.7465
   16TAL    C7816718  -1.804   9.875   7.617 -0.0415 -0.4191  0.2644
   16TAL    C7916719  -1.775  10.024   7.608  0.0015  0.1119 -0.0042
   16TAL    C8016720  -1.655  10.079   7.675 -0.3615 -0.3068  0.2618
   17HTM    C8116721  -2.272   9.522   7.198 -0.1974 -0.0934  0.1193
   17HTM    C8216722  -2.386   9.448   7.183 -0.3319  0.0704  0.3257
   17HTM    C8316723  -2.502   9.526   7.150 -0.2511  0.2217  0.3963
   17HTM    C8416724  -2.477   9.660   7.139 -0.0550  0.1734  0.2431
   17HTM     S916725  -2.304   9.698   7.170  0.0435 -0.0689 -0.0038
   18TAL    C8516726  -2.639   9.461   7.123  0.4452  0.2905  0.5482
   18TAL    C8616727  -2.671   9.316   7.170 -0.8221 -0.3394  0.2348
   18TAL    C8716728  -2.787   9.246   7.103  0.2407 -0.1353 -0.1451
   18TAL    C8816729  -2.758   9.162   6.974 -0.4034 -0.5574 -0.2927
   18TAL    C8916730  -2.875   9.089   6.916  0.0267  0.2357 -0.7631
   18TAL    C9016731  -2.870   9.036   6.778  0.3044  0.7389  0.2643
   19HTM    C9116732  -2.563   9.768   7.098 -0.3405 -0.3686  0.1621
   19HTM    C9216733  -2.698   9.773   7.076 -0.3643 -0.1335  0.3655
   19HTM    C9316734  -2.749   9.907   7.066 -0.1762 -0.0397  0.6249
   19HTM    C9416735  -2.654  10.004   7.079 -0.0089 -0.2033  0.6191
   19HTM    S1016736  -2.491   9.933   7.107 -0.0764 -0.4907  0.2835
   20TAL    C9516737  -2.901   9.934   7.049  0.3089 -0.4209  0.8585
   20TAL    C9616738  -3.004   9.825   7.049  0.6984  0.7008 -0.7547
   20TAL    C9716739  -3.047   9.798   7.192  0.2380 -0.5934 -0.1599
   20TAL    C9816740  -3.121   9.669   7.232  0.1986  0.5047 -0.2071
   20TAL    C9916741  -3.053   9.536   7.187  0.1395  0.2415 -0.4243
   20TAL   C10016742  -3.156   9.421   7.209 -0.7605 -0.6945 -0.2575
   21HTM   C10116743  -2.653  10.152   7.085  0.3679  0.3371 -0.1343
   21HTM   C10216744  -2.542  10.231   7.091  0.2282  0.5677 -0.5348
   21HTM   C10316745  -2.572  10.372   7.090 -0.0451  0.5103 -0.8271
   21HTM   C10416746  -2.705  10.400   7.083 -0.1130  0.2357 -0.6497
   21HTM    S1116747  -2.804  10.250   7.077  0.1644  0.0269 -0.0952
   22TAL   C10516748  -2.458  10.481   7.084  0.2164  0.5191 -0.0044
   22TAL   C10616749  -2.316  10.440   7.115  0.0836 -0.8306  0.8678
   22TAL   C10716750  -2.207  10.539   7.065  0.0543  0.2642  0.0319
   22TAL   C10816751  -2.129  10.508   6.932  0.1645  0.0535 -0.1237
   22TAL   C10916752  -2.209  10.498   6.802 -0.0943 -0.4208 -0.2099
   22TAL   C11016753  -2.128  10.498   6.675 -0.1221 -0.6476  0.2583
   23HTM   C11116754  -2.777  10.533   7.103  0.1445 -0.1582  0.0495
   23HTM   C11216755  -2.898  10.542   7.164 -0.0637 -0.3085 -0.3424
   23HTM   C11316756  -2.931  10.675   7.208 -0.4294 -0.3234 -0.5660
   23HTM   C11416757  -2.835  10.767   7.181 -0.4997 -0.1844 -0.3447
   23HTM    S1216758  -2.694  10.693   7.097 -0.1070 -0.0227  0.1671
   24TAL   C11516759  -3.061  10.711   7.274 -0.2609  0.4013  0.2238
   24TAL   C11616760  -3.186  10.636   7.249 -0.5126  0.0722  0.5931
   24TAL   C11716761  -3.311  10.707   7.306 -0.1388 -0.3708  0.1378
   24TAL   C11816762  -3.437  10.623   7.289 -0.8069  1.0897 -0.1084
   24TAL   C11916763  -3.559  10.683   7.356 -0.1339  0.0273 -0.4181
   24TAL   C12016764  -3.655  10.577   7.404 -0.0020  0.7575 -1.0071
   25HTM   C12116765  -2.821  10.915   7.200  0.8136 -0.3000  0.2456
   25HTM   C12216766  -2.895  10.997   7.280  0.5918 -0.3194  0.0606
   25HTM   C12316767  -2.849  11.134   7.280  0.2501 -0.2037 -0.2131
   25HTM   C12416768  -2.741  11.156   7.201  0.2116 -0.0964 -0.2362
   25HTM    S1316769  -2.687  11.004   7.119  0.6070 -0.1332  0.0881
   26TAL   C12516770  -2.930  11.236   7.367  0.3951  0.1139  0.1422
   26TAL   C12616771  -3.081  11.224   7.388 -0.4097  0.1049 -0.4110
   26TAL   C12716772  -3.135  11.097   7.449  0.4493  0.4829 -0.0451
   26TAL   C12816773  -3.285  11.056   7.446  0.5607 -0.3712  0.3728
   26TAL   C12916774  -3.396  11.162   7.463 -0.0235  1.0199 -0.2695
   26TAL   C13016775  -3.533  11.101   7.483  0.3962 -0.2624  0.0966
   27HTM   C13116776  -2.656  11.272   7.200 -0.1886  0.1604 -0.5842
   27HTM   C13216777  -2.522  11.273   7.175 -0.2148  0.2164 -0.7236
   27HTM   C13316778  -2.460  11.401   7.196 -0.1614  0.1265 -0.3333
   27HTM   C13416779  -2.547  11.498   7.237 -0.0943  0.0021  0.1041
   27HTM    S1416780  -2.715  11.434   7.253 -0.0934 -0.0113  0.0560
   28TAL   C13516781  -2.308  11.412   7.162  0.0024  0.1457 -0.8601
   28TAL   C13616782  -2.206  11.300   7.188  0.8342 -0.2521 -0.0454
   28TAL   C13716783  -2.067  11.337   7.133  0.1419  0.3632  0.1096
   28TAL   C13816784  -1.975  11.216   7.138 -0.1448  0.2209 -0.0509
   28TAL   C13916785  -1.826  11.240   7.093 -0.1181  0.5341  0.2758
   28TAL   C14016786  -1.733  11.130   7.124  0.2419  0.2660 -0.6777
   29HTM   C14116787  -2.522  11.638   7.244 -0.0405 -0.0603  0.0849
   29HTM   C14216788  -2.402  11.699   7.227  0.0560 -0.2397  0.1242
   29HTM   C14316789  -2.408  11.842   7.229  0.2332 -0.2272 -0.1245
   29HTM   C14416790  -2.534  11.891   7.247  0.2720 -0.0382 -0.3531
   29HTM    S1516791  -2.655  11.758   7.264  0.0864  0.1398 -0.2716
   30TAL   C14516792  -2.275  11.922   7.204  0.3525  0.8119 -0.6408
   30TAL   C14616793  -2.162  11.880   7.105 -0.0622  0.4046  0.3353
   30TAL   C14716794  -2.052  11.816   7.188  0.6963  0.9361 -0.3834
   30TAL   C14816795  -1.935  11.758   7.112  0.7650 -0.1557  0.0587
   30TAL   C14916796  -1.945  11.650   7.001 -0.1147 -0.5089  0.0825
   30TAL   C15016797  -1.827  11.630   6.905 -0.0249  0.5056  0.3595
   31HTM   C15116798  -2.586  12.028   7.252 -0.0049  0.1023  0.4611
   31HTM   C15216799  -2.510  12.139   7.235  0.1514  0.1142  1.1928
   31HTM   C15316800  -2.586  12.262   7.235  0.2391  0.1688  1.3196
   31HTM   C15416801  -2.720  12.243   7.252  0.1494  0.1986  0.6843
   31HTM    S1616802  -2.761  12.069   7.270 -0.0542  0.1596 -0.1294
   32TAL   C15516803  -2.512  12.396   7.216  0.2979  0.0357 -0.2403
   32TAL   C15616804  -2.388  12.412   7.133  0.5904  0.0991 -0.0422
   32TAL   C15716805  -2.329  12.555   7.124  0.4267  0.7917  0.4085
   32TAL   C15816806  -2.199  12.566   7.048 -1.3780 -0.0292  0.1858
   32TAL   C15916807  -2.138  12.705   7.047  0.5127  0.0465 -0.7683
   32TAL   C16016808  -2.012  12.697   6.961  0.0414 -0.5414 -0.0811
   33HTM   C16116809  -2.835  12.331   7.271  0.1356  0.7233  0.5834
   33HTM   C16216810  -2.829  12.468   7.271 -0.2468  0.7445  1.5781
   33HTM   C16316811  -2.952  12.530   7.313 -0.5302  0.0972  1.7302
   33HTM   C16416812  -3.050  12.442   7.345 -0.3645 -0.4179  0.8516
   33HTM    S1716813  -2.996  12.271   7.324  0.1670 -0.1227 -0.2449
   34TAL   C16516814  -2.958  12.682   7.326 -0.3542 -0.5146  0.0902
   34TAL   C16616815  -2.942  12.760   7.196  0.2021  0.5495 -0.3952
   34TAL   C16716816  -2.999  12.897   7.203  0.9027  0.1883 -0.1914
   34TAL   C16816817  -2.998  12.966   7.071  0.5406  0.0167 -0.4851
   34TAL   C16916818  -3.012  13.123   7.078  0.1746  0.0913  0.2063
   34TAL   C17016819  -3.009  13.196   6.939  0.1928 -0.2941  0.9721
   35HTM   C17116820  -3.180  12.463   7.405  0.2544 -0.1312 -0.2471
   35HTM   C17216821  -3.262  12.374   7.468  0.4869 -0.0035  0.2389
   35HTM   C17316822  -3.389  12.430   7.507  0.5748  0.0368  0.4694
   35HTM   C17416823  -3.404  12.561   7.474  0.4092 -0.0602  0.1591
   35HTM    S1816824  -3.258  12.625   7.390  0.1273 -0.2114 -0.4532
   36TAL   C17516825  -3.492  12.337   7.569 -0.7432 -0.3682 -0.2367
   36TAL   C17616826  -3.539  12.385   7.702 -0.0560  0.4055  0.2843
   36TAL   C17716827  -3.673  12.322   7.746  0.5188  0.3688 -0.4095
   36TAL   C17816828  -3.784  12.337   7.640 -0.4771  0.1388  0.7213
   36TAL   C17916829  -3.918  12.254   7.640 -0.6687  0.1429 -0.4114
   36TAL   C18016830  -3.991  12.274   7.509  0.4510  0.4881  0.2321
   37HTM   C18116831  -3.518  12.658   7.485 -0.2421  0.1798  0.4124
   37HTM   C18216832  -3.652  12.642   7.508 -0.2227  0.4071  0.6940
   37HTM   C18316833  -3.729  12.761   7.483 -0.1049  0.4652  0.6034
   37HTM   C18416834  -3.655  12.867   7.442 -0.0348  0.2821  0.2523
   37HTM    S1916835  -3.479  12.825   7.431 -0.1121  0.0202  0.0074
   38TAL   C18516836  -3.875  12.757   7.523 -0.2816  0.1046  0.1174
   38TAL   C18616837  -3.924  12.704   7.659  0.2012 -0.3332  0.4866
   38TAL   C18716838  -4.077  12.692   7.677 -0.3698  0.8011  0.7065
   38TAL   C18816839  -4.134  12.589   7.578  0.1133  0.0894 -0.2987
   38TAL   C18916840  -4.285  12.569   7.587 -0.3655  0.2860 -0.0352
   38TAL   C19016841  -4.340  12.451   7.524  0.3368 -0.0498  1.1477
   39HTM   C19116842  -3.690  12.997   7.401  0.2773 -0.0841  0.3680
   39HTM   C19216843  -3.810  13.059   7.382  0.0803 -0.4444  0.4134
   39HTM   C19316844  -3.797  13.197   7.341 -0.3486 -0.4594  0.2282
   39HTM   C19416845  -3.668  13.239   7.329 -0.4787 -0.1105  0.0411
   39HTM    S2016846  -3.551  13.108   7.370 -0.0665  0.2668  0.0854
   40TAL   C19516847  -3.924  13.270   7.299 -0.3448 -0.5662  0.0645
   40TAL   C19616848  -3.995  13.214   7.175  0.6613 -0.4534 -0.1789
   40TAL   C19716849  -4.136  13.269   7.181 -0.1360  0.1524 -0.8073
   40TAL   C19816850  -4.242  13.198   7.101  0.0734  0.4085  0.5128
   40TAL   C19916851  -4.282  13.274   6.972 -0.0858  0.6859 -0.2358
   40TAL   C20016852  -4.372  13.188   6.881 -0.3259 -0.6618  0.0836
   41HTM   C20116853  -3.612  13.374   7.297  0.0298 -0.0426 -0.0761
   41HTM   C20216854  -3.497  13.414   7.360 -0.1132 -0.1717  0.2697
   41HTM   C20316855  -3.483  13.557   7.367 -0.0572 -0.1869  0.4678
   41HTM   C20416856  -3.586  13.626   7.310  0.1285 -0.0694  0.2730
   41HTM    S2116857  -3.710  13.514   7.242  0.2477  0.0707 -0.1788
   42TAL   C20516858  -3.349  13.614   7.413  0.6263  0.6918 -0.4681
   42TAL   C20616859  -3.321  13.768   7.389 -0.2134 -0.8091 -0.6832
   42TAL   C20716860  -3.182  13.805   7.436 -0.4855 -0.0234  0.6337
   42TAL   C20816861  -3.157  13.950   7.396 -0.3447 -0.1752  0.5307
   42TAL   C20916862  -3.008  13.993   7.396 -0.4641  0.6091 -0.1919
   42TAL   C21016863  -2.977  14.107   7.296  0.7508 -0.2747  0.2814
   43HTM   C21116864  -3.628  13.765   7.323 -0.2584  0.3221 -0.0096
   43HTM   C21216865  -3.669  13.855   7.230 -0.4182  0.4327  0.1671
   43HTM   C21316866  -3.711  13.981   7.286 -0.4771  0.3097  0.4001
   43HTM   C21416867  -3.702  13.987   7.422 -0.3622  0.1059  0.4010
   43HTM    S2216868  -3.639  13.832   7.490 -0.1692  0.0529  0.1055
   44TAL   C21516869  -3.759  14.100   7.210  0.0745  0.2301  0.6469
   44TAL   C21616870  -3.814  14.096   7.068 -0.0909  0.1947 -0.3658
   44TAL   C21716871  -3.940  14.010   7.048 -0.4900 -0.3886 -0.0010
   44TAL   C21816872  -4.066  14.049   7.120  0.3727  0.5880 -0.2580
   44TAL   C21916873  -4.129  14.182   7.075 -0.4622 -0.2737  0.0902
   44TAL   C22016874  -4.251  14.227   7.156 -0.2381  0.0749 -0.4011
   45HTM   C22116875  -3.743  14.086   7.523 -0.4938  0.1584 -0.1548
   45HTM   C22216876  -3.692  14.209   7.551 -0.7184  0.2675 -0.2184
   45HTM   C22316877  -3.738  14.265   7.676 -0.5269  0.0813 -0.0627
   45HTM   C22416878  -3.825  14.184   7.743 -0.1562 -0.1701  0.1193
   45HTM    S2316879  -3.855  14.031   7.653 -0.0191 -0.1906  0.1086
   46TAL   C22516880  -3.680  14.389   7.747 -0.0552 -0.1285  0.6552
   46TAL   C22616881  -3.576  14.474   7.668 -0.4480  0.2202  0.2413
   46TAL   C22716882  -3.510  14.577   7.758 -0.4609 -0.1095 -0.4480
   46TAL   C22816883  -3.402  14.649   7.685  0.1305 -0.2557  0.4219
   46TAL   C22916884  -3.302  14.726   7.766 -0.4202  0.0487 -0.5625
   46TAL   C23016885  -3.179  14.761   7.695 -0.0996  0.0190  0.5483
   47HTM   C23116886  -3.915  14.201   7.862  0.0392  0.1780 -0.4110
   47HTM   C23216887  -4.024  14.126   7.895  0.1910 -0.0539 -0.4306
   47HTM   C23316888  -4.086  14.166   8.019  0.3264 -0.4494 -0.2313
   47HTM   C23416889  -4.024  14.272   8.079  0.2778 -0.5190 -0.0601
   47HTM    S2416890  -3.881  14.329   7.984  0.0557 -0.0867 -0.1380
   48TAL   C23516891  -4.218  14.101   8.071 -0.4068 -0.7972 -0.4749
   48TAL   C23616892  -4.304  14.186   8.159 -0.2489  0.5193 -0.5407
   48TAL   C23716893  -4.387  14.108   8.255  0.2451  0.2110  0.1913
   48TAL   C23816894  -4.490  14.181   8.330  0.6790 -0.5620  0.6244
   48TAL   C23916895  -4.544  14.114   8.450  0.0659  0.3531 -0.2197
   48TAL   C24016896  -4.639  14.208   8.535 -0.0360 -0.1627  0.2019
    1HTM     C116897   0.935   5.198   8.935 -0.2742  0.1303  0.0276
    1HTM     C216898   0.988   5.197   9.060 -0.5281  0.0250  0.1354
    1HTM     C316899   1.010   5.329   9.115 -0.5310 -0.0193  0.2432
    1HTM     C416900   0.973   5.430   9.031 -0.2792  0.0520  0.2174
    1HTM     S116901   0.908   5.366   8.875 -0.0169  0.1815  0.0546
    2TAL     C516902   1.076   5.343   9.255  0.5854 -0.5149  0.0194
    2TAL     C616903   1.004   5.260   9.368 -0.5700  0.2312  0.4544
    2TAL     C716904   0.852   5.255   9.380 -0.3150  0.8340 -0.1199
    2TAL     C816905   0.816   5.180   9.504 -0.0788 -0.0158  0.4650
    2TAL     C916906   0.681   5.187   9.576 -0.3805 -0.2822  0.0881
    2TAL    C1016907   0.646   5.063   9.649 -0.0245 -0.1148 -0.3806
    3HTM    C1116908   0.971   5.573   9.052  0.2100  0.3931  0.2749
    3HTM    C1216909   1.077   5.652   9.083  0.0750  0.5133  0.4280
    3HTM    C1316910   1.043   5.791   9.099 -0.1099  0.4706  0.3976
    3HTM    C1416911   0.910   5.817   9.081 -0.1157  0.3178  0.2213
    3HTM     S216912   0.818   5.667   9.041  0.1134  0.2150  0.0790
    4TAL    C1516913   1.140   5.901   9.144 -0.4130 -0.0625 -0.3619
    4TAL    C1616914   1.209   5.965   9.019  0.1664 -0.4909 -0.6818
    4TAL    C1716915   1.317   6.069   9.047 -0.3294  0.5852  0.9245
    4TAL    C1816916   1.259   6.196   9.107  0.3441  0.2541  0.0315
    4TAL    C1916917   1.222   6.310   9.017 -0.3773 -0.1271 -0.2744
    4TAL    C2016918   1.140   6.286   8.899  0.2278  0.0737 -0.2316
    5HTM    C2116919   0.835   5.943   9.082  0.2296  0.2922  0.1621
    5HTM    C2216920   0.864   6.071   9.045  0.1047  0.4554  0.6172
    5HTM    C2316921   0.756   6.164   9.065  0.0351  0.2918  1.0084
    5HTM    C2416922   0.644   6.107   9.117  0.1070  0.0046  0.8516
    5HTM     S316923   0.666   5.930   9.146  0.2693 -0.0829  0.1925
    6TAL    C2516924   0.770   6.310   9.032  0.6269 -0.4665  0.0105
    6TAL    C2616925   0.850   6.405   9.124 -0.0786  0.1671 -0.2540
    6TAL    C2716926   0.811   6.391   9.269 -0.3581  0.1959  0.5330
    6TAL    C2816927   0.905   6.450   9.371  0.8331 -0.4855 -0.2151
    6TAL    C2916928   1.047   6.410   9.367 -0.3307 -0.1874 -0.4236
    6TAL    C3016929   1.137   6.488   9.461 -0.6957 -0.2415 -0.5694
    7HTM    C3116930   0.515   6.165   9.154  0.0589  0.3800  0.2836
    7HTM    C3216931   0.431   6.124   9.253  0.1461  0.4792  0.4008
    7HTM    C3316932   0.310   6.201   9.262  0.0043  0.2813  0.2125
    7HTM    C3416933   0.302   6.302   9.171 -0.1911  0.0311 -0.0483
    7HTM     S416934   0.448   6.307   9.065 -0.2113  0.0263 -0.0764
    8TAL    C3516935   0.204   6.193   9.378 -0.4569  0.6950  0.5665
    8TAL    C3616936   0.231   6.098   9.488  0.4252  0.0765 -0.2429
    8TAL    C3716937   0.339   6.163   9.574 -0.7062  0.9528 -0.0926
    8TAL    C3816938   0.378   6.091   9.701 -0.1478 -0.2383 -0.4656
    8TAL    C3916939   0.286   6.087   9.824  0.2231 -0.6220  0.0213
    8TAL    C4016940   0.245   6.225   9.886  0.1427  0.6660 -0.0731
    9HTM    C4116941   0.202   6.407   9.154 -0.1630  0.1978  0.2312
    9HTM    C4216942   0.066   6.403   9.168 -0.1631  0.1683  0.2209
    9HTM    C4316943   0.001   6.529   9.146 -0.2189  0.0882 -0.0797
    9HTM    C4416944   0.087   6.630   9.115 -0.2608  0.0565 -0.2986
    9HTM     S516945   0.258   6.573   9.110 -0.2335  0.1259 -0.1408
   10TAL    C4516946  -0.153   6.534   9.163  0.1127 -0.2356  0.4489
   10TAL    C4616947  -0.234   6.469   9.044  0.6284  0.4625 -0.1134
   10TAL    C4716948  -0.374   6.524   9.007  0.2338 -0.1205  0.3146
   10TAL    C4816949  -0.398   6.676   9.017 -0.0450 -0.0630  0.4398
   10TAL    C4916950  -0.542   6.703   8.974  0.3404 -0.1427  0.2531
   10TAL    C5016951  -0.568   6.851   9.006  0.2042 -0.2160  0.4360
   11HTM    C5116952   0.061   6.770   9.077 -0.0339 -0.0157 -0.1507
   11HTM    C5216953   0.151   6.867   9.112 -0.0857  0.1659 -0.5232
   11HTM    C5316954   0.097   7.000   9.106 -0.3237  0.0730 -0.4825
   11HTM    C5416955  -0.034   7.006   9.068 -0.4532 -0.1795 -0.0788
   11HTM     S616956  -0.100   6.841   9.035 -0.2839 -0.3207  0.2840
   12TAL    C5516957   0.186   7.124   9.133 -0.2544  0.4144 -1.0385
   12TAL    C5616958   0.242   7.155   9.276  0.3431 -0.2504  0.2141
   12TAL    C5716959   0.316   7.291   9.289  0.9138  0.5773 -0.4213
   12TAL    C5816960   0.239   7.419   9.256  0.0802 -0.1351 -0.2269
   12TAL    C5916961   0.314   7.551   9.253  0.4719 -0.2020  0.0449
   12TAL    C6016962   0.230   7.647   9.177  0.5708  0.0688  0.2927
   13HTM    C6116963  -0.128   7.114   9.070  0.1267  0.0119  0.0329
   13HTM    C6216964  -0.123   7.245   9.107  0.0277 -0.0162  0.1455
   13HTM    C6316965  -0.246   7.317   9.082 -0.0858 -0.1302  0.3704
   13HTM    C6416966  -0.344   7.241   9.026 -0.0737 -0.1892  0.4293
   13HTM     S716967  -0.289   7.071   9.000  0.0837 -0.1045  0.2035
   14TAL    C6516968  -0.251   7.468   9.119  0.4618 -0.2631 -0.7853
   14TAL    C6616969  -0.139   7.527   9.211 -0.4159  0.0384 -0.5168
   14TAL    C6716970  -0.175   7.670   9.246 -0.6424  0.5503 -0.2041
   14TAL    C6816971  -0.065   7.749   9.306  0.4329  1.0108 -0.2685
   14TAL    C6916972  -0.102   7.899   9.326 -0.3158 -0.4996 -0.1233
   14TAL    C7016973   0.017   7.975   9.382 -0.0882  0.2070 -0.0691
   15HTM    C7116974  -0.476   7.277   8.980 -0.0310 -0.4371 -0.0127
   15HTM    C7216975  -0.579   7.189   8.969 -0.1950 -0.2444 -0.0291
   15HTM    C7316976  -0.707   7.252   8.949 -0.1111  0.0052  0.2112
   15HTM    C7416977  -0.701   7.388   8.945  0.1170  0.0028  0.4112
   15HTM     S816978  -0.533   7.448   8.966  0.2441 -0.3179  0.3098
   16TAL    C7516979  -0.823   7.158   8.931 -0.8013 -0.3936 -0.1954
   16TAL    C7616980  -0.831   7.082   8.804 -0.1721  0.4307 -0.4149
   16TAL    C7716981  -0.798   7.158   8.667 -0.3190 -0.0633 -0.1071
   16TAL    C7816982  -0.797   7.052   8.553 -0.5915  0.0203  0.0414
   16TAL    C7916983  -0.733   7.125   8.435  0.6079 -0.2707  0.6868
   16TAL    C8016984  -0.714   7.024   8.323  0.6770 -0.4579  0.1520
   17HTM    C8116985  -0.806   7.486   8.945  0.0220  0.0074 -0.1488
   17HTM    C8216986  -0.813   7.602   8.873  0.0048 -0.0641 -0.2632
   17HTM    C8316987  -0.937   7.674   8.892 -0.0005 -0.0572 -0.3223
   17HTM    C8416988  -1.024   7.613   8.977  0.0133  0.0194 -0.2529
   17HTM     S916989  -0.955   7.458   9.042  0.0340  0.0897 -0.1064
   18TAL    C8516990  -0.969   7.813   8.826  0.5479 -0.2299 -0.8496
   18TAL    C8616991  -0.847   7.892   8.783  0.3250 -0.0509  0.3990
   18TAL    C8716992  -0.758   7.949   8.894  0.3103 -0.4206 -0.7609
   18TAL    C8816993  -0.801   8.050   9.008  0.2148  0.4875  0.1116
   18TAL    C8916994  -0.872   8.174   8.961 -0.0346  0.2119 -0.1909
   18TAL    C9016995  -0.897   8.255   9.087  0.0121 -0.2281 -0.0259
   19HTM    C9116996  -1.151   7.652   9.022  0.2989  0.5649  0.1048
   19HTM    C9216997  -1.181   7.689   9.150  0.1965  0.8318  0.0042
   19HTM    C9316998  -1.322   7.706   9.174  0.1371  0.3340  0.0054
   19HTM    C9416999  -1.399   7.681   9.065  0.1943 -0.3121  0.1069
   19HTM    S1017000  -1.300   7.635   8.922  0.3282 -0.3422  0.2099
   20TAL    C9517001  -1.380   7.748   9.316 -0.0976  0.4799  0.6552
   20TAL    C9617002  -1.397   7.899   9.335  0.1464  0.1481 -0.6030
   20TAL    C9717003  -1.269   7.970   9.381  0.0487  0.2162  0.9356
   20TAL    C9817004  -1.278   8.110   9.439  0.5937  0.4631 -0.1938
   20TAL    C9917005  -1.153   8.194   9.403  0.8526  0.1175 -0.3965
   20TAL   C10017006  -1.167   8.334   9.450 -0.2777  0.0691 -0.1167
   21HTM   C10117007  -1.546   7.672   9.048  0.0197 -0.0219 -0.3919
   21HTM   C10217008  -1.622   7.565   9.013 -0.1078  0.2639 -0.9909
   21HTM   C10317009  -1.764   7.590   9.018 -0.0761  0.4356 -0.9543
   21HTM   C10417010  -1.796   7.717   9.058  0.0754  0.2808 -0.3275
   21HTM    S1117011  -1.648   7.815   9.092  0.1908 -0.0971  0.2699
   22TAL   C10517012  -1.862   7.473   8.999 -0.2612 -0.1008  0.1151
   22TAL   C10617013  -1.815   7.330   9.021  0.4942 -0.1394 -0.0834
   22TAL   C10717014  -1.928   7.210   9.022 -1.2265  0.3438  0.0022
   22TAL   C10817015  -1.852   7.080   9.067 -0.0405 -0.6469  0.5107
   22TAL   C10917016  -1.734   7.035   8.975 -0.1848  0.3698  0.0564
   22TAL   C11017017  -1.681   6.897   9.006 -0.1158 -0.1423  0.6818
   23HTM   C11117018  -1.921   7.787   9.055  0.1051  0.2557  0.2334
   23HTM   C11217019  -1.995   7.804   9.168  0.1495  0.1888  0.2731
   23HTM   C11317020  -2.108   7.892   9.151  0.2213  0.3078  0.4033
   23HTM   C11417021  -2.120   7.941   9.024  0.2316  0.4650  0.4629
   23HTM    S1217022  -1.989   7.880   8.916  0.1509  0.4758  0.3580
   24TAL   C11517023  -2.214   7.916   9.267 -0.2286 -0.2065 -0.6067
   24TAL   C11617024  -2.168   7.895   9.413  0.7215 -0.5986  0.0014
   24TAL   C11717025  -2.063   7.998   9.452 -1.0395  0.2203 -0.2885
   24TAL   C11817026  -1.991   7.947   9.577  0.1142  0.0274  0.2449
   24TAL   C11917027  -1.878   8.022   9.640  0.0829 -0.9169  0.0952
   24TAL   C12017028  -1.753   8.050   9.551  0.2444 -0.3164  0.0336
   25HTM   C12117029  -2.211   8.040   8.962 -0.0745  0.0769 -0.3092
   25HTM   C12217030  -2.266   8.035   8.837  0.0319  0.3004 -0.3638
   25HTM   C12317031  -2.364   8.137   8.812  0.0536  0.3452 -0.2670
   25HTM   C12417032  -2.386   8.220   8.919 -0.0363  0.1561 -0.1375
   25HTM    S1317033  -2.281   8.175   9.059 -0.1565 -0.0953 -0.1279
   26TAL   C12517034  -2.428   8.154   8.678 -0.3758 -0.1590  0.4168
   26TAL   C12617035  -2.513   8.032   8.639 -0.5152 -0.1515  0.2826
   26TAL   C12717036  -2.583   8.062   8.501  0.4196 -0.4443  0.4250
   26TAL   C12817037  -2.697   8.162   8.493 -0.3577  0.2819  0.6404
   26TAL   C12917038  -2.835   8.109   8.541 -0.5984  0.3001 -0.3990
   26TAL   C13017039  -2.947   8.211   8.563  0.5217  0.0523  0.3282
   27HTM   C13117040  -2.478   8.328   8.933  0.1428 -0.2289 -0.8700
   27HTM   C13217041  -2.452   8.461   8.937  0.3891 -0.2561 -1.4086
   27HTM   C13317042  -2.569   8.544   8.925  0.4778 -0.0987 -1.1992
   27HTM   C13417043  -2.685   8.473   8.911  0.2989  0.0481 -0.5014
   27HTM    S1417044  -2.654   8.296   8.912  0.0020 -0.0020 -0.0502
   28TAL   C13517045  -2.550   8.689   8.901 -0.3712 -0.6527 -0.2978
   28TAL   C13617046  -2.417   8.749   8.832  0.5199  0.2327 -0.4944
   28TAL   C13717047  -2.408   8.908   8.829 -0.5867 -0.0473 -0.0142
   28TAL   C13817048  -2.279   8.952   8.763  0.4561  0.1827 -0.2618
   28TAL   C13917049  -2.288   9.099   8.709  0.7700 -0.0192 -0.3700
   28TAL   C14017050  -2.194   9.135   8.595 -0.4102  0.2695  0.1384
   29HTM   C14117051  -2.820   8.525   8.898  0.4313  0.0718 -0.0597
   29HTM   C14217052  -2.906   8.506   8.794  0.5751 -0.1674 -0.1359
   29HTM   C14317053  -3.021   8.592   8.798  0.3841 -0.4134 -0.2961
   29HTM   C14417054  -3.023   8.677   8.905  0.0948 -0.3612 -0.3415
   29HTM    S1517055  -2.878   8.654   9.009  0.0409  0.0046 -0.1840
   30TAL   C14517056  -3.115   8.597   8.671 -0.3527  1.2092  0.0251
   30TAL   C14617057  -3.086   8.544   8.538 -0.1473 -0.3824  0.4250
   30TAL   C14717058  -3.198   8.576   8.444  0.1786 -0.4721  0.0217
   30TAL   C14817059  -3.171   8.526   8.302  0.6316  0.1541  0.2289
   30TAL   C14917060  -3.273   8.575   8.194  0.2831  0.6257 -0.4249
   30TAL   C15017061  -3.415   8.531   8.215 -0.1764  0.2435  0.0507
   31HTM   C15117062  -3.115   8.789   8.943 -0.1219  0.1204  0.2274
   31HTM   C15217063  -3.085   8.880   9.040 -0.2420  0.3328  0.0668
   31HTM   C15317064  -3.185   8.982   9.057 -0.3138  0.3090 -0.2065
   31HTM   C15417065  -3.292   8.968   8.973 -0.2486  0.0783 -0.2538
   31HTM    S1617066  -3.274   8.825   8.866 -0.0899 -0.1275  0.0452
   32TAL   C15517067  -3.159   9.085   9.161 -0.2710  0.0124  0.2864
   32TAL   C15617068  -3.055   9.192   9.123 -0.3544  0.0662  0.1338
   32TAL   C15717069  -3.047   9.307   9.228 -0.3677  0.0856  0.6058
   32TAL   C15817070  -3.175   9.375   9.288  0.0013  0.0006 -0.1838
   32TAL   C15917071  -3.259   9.446   9.184  0.5006 -0.5496 -0.0695
   32TAL   C16017072  -3.389   9.491   9.245  0.9379 -0.2872 -0.0277
   33HTM   C16117073  -3.419   9.045   8.954 -0.2729 -0.5684  0.5563
   33HTM   C16217074  -3.441   9.180   8.950 -0.1793 -0.5368  0.9880
   33HTM   C16317075  -3.579   9.215   8.933 -0.1378 -0.3906  0.9532
   33HTM   C16417076  -3.663   9.108   8.926 -0.1997 -0.3108  0.4948
   33HTM    S1717077  -3.572   8.952   8.938 -0.3162 -0.4149  0.0685
   34TAL   C16517078  -3.627   9.356   8.940  0.4872  0.5056 -0.5628
   34TAL   C16617079  -3.544   9.470   8.895 -0.3829 -0.1246 -0.4563
   34TAL   C16717080  -3.590   9.603   8.956 -0.0517 -0.0953  0.4240
   34TAL   C16817081  -3.741   9.643   8.969 -0.0849  0.1951 -0.0275
   34TAL   C16917082  -3.823   9.644   8.838  0.1162  0.1191  0.2049
   34TAL   C17017083  -3.965   9.703   8.850 -0.0852 -0.3359 -0.3652
   35HTM   C17117084  -3.806   9.102   8.902 -0.1730 -0.1094  0.2710
   35HTM   C17217085  -3.879   8.989   8.927 -0.3319  0.0139  0.3705
   35HTM   C17317086  -4.021   9.008   8.914 -0.2921  0.1376  0.0954
   35HTM   C17417087  -4.057   9.135   8.880 -0.1027  0.1085 -0.2119
   35HTM    S1817088  -3.913   9.242   8.861  0.0408 -0.0787 -0.1789
   36TAL   C17517089  -4.111   8.886   8.934 -0.2039 -0.8090  0.7530
   36TAL   C17617090  -4.077   8.771   8.848 -0.5284  0.1772  0.9321
   36TAL   C17717091  -4.130   8.780   8.705  0.5301  0.0404  0.5854
   36TAL   C17817092  -4.273   8.823   8.674  0.4287 -0.6150 -0.0712
   36TAL   C17917093  -4.386   8.742   8.731 -0.1629 -0.7508 -0.1742
   36TAL   C18017094  -4.527   8.796   8.708 -0.1976  0.2001 -0.6426
   37HTM   C18117095  -4.181   9.205   8.854 -0.0174 -0.4924 -0.4624
   37HTM   C18217096  -4.195   9.340   8.844  0.2341 -0.4853 -0.7529
   37HTM   C18317097  -4.332   9.382   8.828  0.2937 -0.2539 -0.6509
   37HTM   C18417098  -4.421   9.279   8.826  0.0877 -0.0846 -0.2834
   37HTM    S1917099  -4.340   9.120   8.844 -0.2005 -0.2052 -0.0350
   38TAL   C18517100  -4.357   9.525   8.806  0.1438 -0.5376  0.3138
   38TAL   C18617101  -4.361   9.618   8.919  0.3057  0.7745  0.5490
   38TAL   C18717102  -4.471   9.601   9.023 -0.2620  0.8583 -0.2240
   38TAL   C18817103  -4.469   9.706   9.131  0.2327  0.0440  0.8029
   38TAL   C18917104  -4.588   9.733   9.226 -0.0304  0.9185 -0.1091
   38TAL   C19017105  -4.711   9.797   9.150 -0.3002  0.9952  0.6333
   39HTM   C19117106  -4.567   9.279   8.825  0.1169  0.0317 -0.0448
   39HTM   C19217107  -4.638   9.372   8.895 -0.0639  0.0147 -0.2065
   39HTM   C19317108  -4.778   9.342   8.905 -0.0470 -0.1152 -0.3653
   39HTM   C19417109  -4.814   9.226   8.842  0.1467 -0.1973 -0.3238
   39HTM    S2017110  -4.672   9.146   8.765  0.3241 -0.1162 -0.0801
   40TAL   C19517111  -4.858   9.460   8.958 -0.0810 -0.5492 -0.1576
   40TAL   C19617112  -4.920   9.436   9.095 -0.5119 -0.0407 -0.0024
   40TAL   C19717113  -4.995   9.549   9.158  0.9307  0.3120  0.2525
   40TAL   C19817114  -5.148   9.533   9.154 -0.2798 -0.2887 -0.2736
   40TAL   C19917115  -5.223   9.659   9.175 -0.0511  0.0654  0.6688
   40TAL   C20017116  -5.291   9.668   9.308  0.2336  0.3833  0.4482
   41HTM   C20117117  -4.944   9.161   8.843 -0.4723  0.0429  0.5204
   41HTM   C20217118  -5.057   9.203   8.906 -0.7827 -0.1073  0.0730
   41HTM   C20317119  -5.176   9.132   8.865 -0.5369 -0.2291 -0.4382
   41HTM   C20417120  -5.153   9.037   8.770 -0.0393 -0.1718 -0.3799
   41HTM    S2117121  -4.979   9.029   8.725  0.1589  0.0420  0.3307
   42TAL   C20517122  -5.310   9.184   8.911  0.8291 -0.3698 -0.1076
   42TAL   C20617123  -5.358   9.313   8.836  0.1303 -0.0875 -0.1624
   42TAL   C20717124  -5.502   9.357   8.841  0.6490  0.2665 -0.4023
   42TAL   C20817125  -5.608   9.280   8.767  0.3998 -0.4747  0.0108
   42TAL   C20917126  -5.740   9.350   8.800  0.0574 -0.6293 -0.0387
   42TAL   C21017127  -5.876   9.282   8.763  0.3541 -0.3488 -0.0073
   43HTM   C21117128  -5.242   8.943   8.696 -0.0388  0.0335 -0.1538
   43HTM   C21217129  -5.206   8.871   8.586 -0.3216  0.0701 -0.2723
   43HTM   C21317130  -5.314   8.796   8.527 -0.5046  0.1988 -0.1020
   43HTM   C21417131  -5.432   8.811   8.592 -0.3612  0.2602  0.1463
   43HTM    S2217132  -5.417   8.921   8.734  0.0189  0.1591  0.1842
   44TAL   C21517133  -5.282   8.712   8.403 -0.1619 -0.3090 -0.5302
   44TAL   C21617134  -5.208   8.580   8.422 -0.6249 -0.2651  0.4175
   44TAL   C21717135  -5.168   8.514   8.289  0.3116  0.2029  0.1666
   44TAL   C21817136  -5.276   8.436   8.210 -0.1631 -0.8953  0.0945
   44TAL   C21917137  -5.342   8.324   8.284 -0.2302 -0.5466  0.1472
   44TAL   C22017138  -5.264   8.210   8.337  0.1525  0.5368 -0.3660
   45HTM   C22117139  -5.569   8.782   8.546 -0.0553  0.0242  0.4260
   45HTM   C22217140  -5.679   8.858   8.574 -0.2689 -0.2375  0.2985
   45HTM   C22317141  -5.798   8.812   8.509 -0.0224 -0.3467 -0.0815
   45HTM   C22417142  -5.780   8.702   8.431  0.3793 -0.1680 -0.2426
   45HTM    S2317143  -5.608   8.646   8.434  0.4782  0.1551  0.0745
   46TAL   C22517144  -5.922   8.901   8.527  0.2128  0.1602  0.2555
   46TAL   C22617145  -5.939   9.012   8.427 -0.1400  0.7070 -0.4638
   46TAL   C22717146  -6.042   9.119   8.463 -0.1018 -0.1281 -0.2329
   46TAL   C22817147  -6.186   9.078   8.440  0.0416  0.6169  0.3669
   46TAL   C22917148  -6.280   9.194   8.466 -0.8996  0.1135  0.0305
   46TAL   C23017149  -6.402   9.204   8.375 -0.2369  0.4618 -0.6849
   47HTM   C23117150  -5.872   8.618   8.361 -0.1803 -0.0702  0.2039
   47HTM   C23217151  -6.008   8.628   8.359 -0.2065 -0.3338  0.5851
   47HTM   C23317152  -6.072   8.527   8.279 -0.2235 -0.3486  0.6180
   47HTM   C23417153  -5.984   8.440   8.220 -0.2104 -0.0962  0.2615
   47HTM    S2417154  -5.813   8.480   8.261 -0.1753  0.1826 -0.1459
   48TAL   C23517155  -6.223   8.520   8.270 -0.7065 -0.0309 -0.1151
   48TAL   C23617156  -6.277   8.414   8.175 -0.0258 -0.4107  0.1733
   48TAL   C23717157  -6.429   8.433   8.158  0.0377 -0.0374  0.2282
   48TAL   C23817158  -6.493   8.338   8.055 -0.6765 -0.2285 -0.2786
   48TAL   C23917159  -6.513   8.191   8.101  0.1058  0.1360  0.4324
   48TAL   C24017160  -6.572   8.090   8.006  0.6696  0.4086  0.3316
    1HTM     C117161   8.883   3.609   6.083 -0.4416 -0.0502 -0.1944
    1HTM     C217162   9.011   3.561   6.083 -0.4382 -0.0504  0.2120
    1HTM     C317163   9.103   3.641   6.006 -0.1788 -0.0124  0.5627
    1HTM     C417164   9.046   3.750   5.949  0.0169  0.0170  0.4234
    1HTM     S117165   8.870   3.761   5.987 -0.1126 -0.0014 -0.1659
    2TAL     C517166   9.247   3.596   5.968  0.0344  0.2873 -0.0446
    2TAL     C617167   9.318   3.508   6.067  0.2557  0.5276 -0.3743
    2TAL     C717168   9.474   3.499   6.032 -0.2084  0.4273  0.1553
    2TAL     C817169   9.563   3.613   5.992 -0.0198  0.4306 -0.1110
    2TAL     C917170   9.558   3.733   6.086  0.3516 -0.0287  0.4230
    2TAL    C1017171   9.637   3.853   6.030 -0.1712  0.6271 -0.4009
    3HTM    C1117172   9.101   3.853   5.867 -0.1949 -0.1611  0.0989
    3HTM    C1217173   9.032   3.927   5.776  0.0169 -0.3657 -0.2286
    3HTM    C1317174   9.114   4.025   5.708  0.1544 -0.4528 -0.1884
    3HTM    C1417175   9.244   4.024   5.747  0.0474 -0.3146  0.1691
    3HTM     S217176   9.274   3.900   5.874 -0.2375 -0.0619  0.4861
    4TAL    C1517177   9.052   4.131   5.620  1.1981 -0.4180 -1.0442
    4TAL    C1617178   8.917   4.125   5.544  0.0206 -0.2127  0.7474
    4TAL    C1717179   8.792   4.101   5.611 -0.0205 -0.2166 -0.1309
    4TAL    C1817180   8.674   4.107   5.520  0.6719 -0.3138  0.0079
    4TAL    C1917181   8.545   4.050   5.566  0.0955 -0.4461 -0.9483
    4TAL    C2017182   8.438   4.064   5.451 -0.9388 -0.6067  0.7644
    5HTM    C2117183   9.362   4.096   5.702  0.2370  0.1832  0.1216
    5HTM    C2217184   9.412   4.118   5.577  0.1458  0.6173  0.1602
    5HTM    C2317185   9.545   4.174   5.577  0.0652  0.8094  0.2580
    5HTM    C2417186   9.596   4.195   5.702  0.0949  0.5224  0.2940
    5HTM     S317187   9.480   4.145   5.830  0.2281 -0.0172  0.2067
    6TAL    C2517188   9.633   4.192   5.454  0.2177 -0.1414 -0.1771
    6TAL    C2617189   9.570   4.246   5.326 -0.0673 -0.5706  0.3385
    6TAL    C2717190   9.479   4.359   5.337  0.1630  0.1556  0.8005
    6TAL    C2817191   9.422   4.410   5.211  0.9692  0.0664 -0.2882
    6TAL    C2917192   9.316   4.515   5.222  0.4986 -0.1090  0.1303
    6TAL    C3017193   9.275   4.571   5.086  0.2839 -0.4001 -0.0472
    7HTM    C3117194   9.732   4.222   5.750 -0.0321 -0.1156 -0.3862
    7HTM    C3217195   9.786   4.162   5.860  0.1658 -0.6049 -0.7489
    7HTM    C3317196   9.924   4.198   5.883  0.1972 -0.6809 -0.8175
    7HTM    C3417197   9.975   4.285   5.791  0.0232 -0.2502 -0.5070
    7HTM     S417198   9.851   4.329   5.667 -0.1954  0.2898 -0.1010
    8TAL    C3517199  10.001   4.152   6.002  0.6270 -0.0594  0.2665
    8TAL    C3617200  10.011   3.996   6.023  0.5812 -0.2392 -0.2865
    8TAL    C3717201  10.144   3.961   5.971 -0.3517 -0.4479  0.1817
    8TAL    C3817202  10.190   3.828   6.029  0.1722 -0.0245 -0.5886
    8TAL    C3917203  10.317   3.795   5.948 -0.6937 -0.5549 -0.3883
    8TAL    C4017204  10.387   3.682   6.023 -0.8077  0.0143  0.6681
    9HTM    C4117205  10.113   4.339   5.782  0.1525 -0.1102 -0.0151
    9HTM    C4217206  10.225   4.262   5.774  0.2148  0.0544 -0.7873
    9HTM    C4317207  10.347   4.338   5.772  0.1161  0.2089 -1.0569
    9HTM    C4417208  10.328   4.473   5.779 -0.0216  0.1621 -0.4901
    9HTM     S517209  10.152   4.515   5.788 -0.0373 -0.0826  0.4348
   10TAL    C4517210  10.489   4.287   5.759 -0.3470  0.3191 -0.3203
   10TAL    C4617211  10.519   4.188   5.876 -0.3865 -0.2121  0.8369
   10TAL    C4717212  10.642   4.098   5.866  0.3645 -0.3251  0.5506
   10TAL    C4817213  10.670   3.998   5.971 -0.4108 -0.2980  0.0354
   10TAL    C4917214  10.778   3.901   5.935 -0.7844 -0.3385 -0.0650
   10TAL    C5017215  10.757   3.800   5.820  0.3312  0.1956  0.2560
   11HTM    C5117216  10.423   4.593   5.774 -0.0237 -0.2992 -0.1941
   11HTM    C5217217  10.556   4.594   5.806 -0.0305 -0.1180 -0.1693
   11HTM    C5317218  10.618   4.723   5.793 -0.2277 -0.0107 -0.0615
   11HTM    C5417219  10.533   4.821   5.750 -0.3714 -0.1108 -0.0045
   11HTM     S617220  10.367   4.757   5.723 -0.2679 -0.3491 -0.0827
   12TAL    C5517221  10.762   4.738   5.833  0.8862 -0.7908 -0.2823
   12TAL    C5617222  10.852   4.626   5.894  0.0087  0.3005 -0.1968
   12TAL    C5717223  10.850   4.493   5.819 -0.1148  0.3030 -0.2861
   12TAL    C5817224  10.913   4.369   5.880  0.1297 -0.0866 -0.3634
   12TAL    C5917225  11.064   4.383   5.900 -0.1996  0.5351  0.1858
   12TAL    C6017226  11.130   4.249   5.921  0.0998 -0.5124 -0.2358
   13HTM    C6117227  10.562   4.958   5.701  0.0953  0.2091  0.3841
   13HTM    C6217228  10.472   5.040   5.639  0.0024  0.2801  0.6127
   13HTM    C6317229  10.526   5.168   5.601  0.0126  0.2282  0.4537
   13HTM    C6417230  10.658   5.184   5.633  0.1130  0.1178  0.1037
   13HTM     S717231  10.724   5.037   5.715  0.2033  0.0705 -0.0529
   14TAL    C6517232  10.449   5.287   5.547  0.3521 -0.2680  0.1345
   14TAL    C6617233  10.305   5.303   5.604  0.1989  0.0432 -0.6293
   14TAL    C6717234  10.231   5.417   5.542  0.7196  0.4213  0.1113
   14TAL    C6817235  10.091   5.432   5.585  0.1704 -0.0398  0.2342
   14TAL    C6917236  10.046   5.451   5.727 -0.1015 -0.0732  0.1507
   14TAL    C7017237  10.087   5.580   5.801  0.1185 -0.0790 -0.3924
   15HTM    C7117238  10.764   5.289   5.610 -0.2208  0.0120  0.1232
   15HTM    C7217239  10.743   5.424   5.615 -0.2893 -0.0064  0.3185
   15HTM    C7317240  10.862   5.502   5.590 -0.3708  0.0908  0.2358
   15HTM    C7417241  10.973   5.427   5.565 -0.3647  0.1831 -0.0225
   15HTM     S817242  10.936   5.251   5.572 -0.2545  0.1544 -0.1826
   16TAL    C7517243  10.857   5.653   5.606 -0.0102  0.5485  0.0575
   16TAL    C7617244  10.860   5.714   5.740 -0.2778  0.5186 -0.0684
   16TAL    C7717245  10.856   5.866   5.736  0.1748 -0.0360 -0.4431
   16TAL    C7817246  10.979   5.943   5.693 -0.1502  0.0445  0.2720
   16TAL    C7917247  11.094   5.935   5.801  0.0958 -0.2429  0.8392
   16TAL    C8017248  11.214   6.020   5.765 -0.0229  0.1478  0.0863
   17HTM    C8117249  11.113   5.466   5.533  0.4403 -0.1024  0.5052
   17HTM    C8217250  11.211   5.384   5.487  0.5459 -0.1485  0.8056
   17HTM    C8317251  11.330   5.453   5.446  0.4500 -0.1400  0.5350
   17HTM    C8417252  11.324   5.588   5.462  0.2714 -0.0875  0.0283
   17HTM     S917253  11.164   5.639   5.530  0.2096 -0.0444 -0.1476
   18TAL    C8517254  11.437   5.382   5.375 -1.1499  0.0174  0.0839
   18TAL    C8617255  11.512   5.285   5.465 -0.3386 -0.4465  0.1348
   18TAL    C8717256  11.615   5.213   5.383  0.4616 -0.1441 -0.5793
   18TAL    C8817257  11.672   5.093   5.452  0.1535  0.1482 -0.0202
   18TAL    C8917258  11.780   5.022   5.368 -0.0963 -0.8455  0.1554
   18TAL    C9017259  11.843   4.910   5.443 -0.5103  0.8520 -0.0671
   19HTM    C9117260  11.420   5.696   5.435  0.5292 -0.4600 -0.3704
   19HTM    C9217261  11.390   5.829   5.429  0.3332 -0.4935 -0.1783
   19HTM    C9317262  11.503   5.912   5.397  0.2053 -0.2830 -0.0865
   19HTM    C9417263  11.619   5.842   5.379  0.3038 -0.0890 -0.2089
   19HTM    S1017264  11.594   5.665   5.402  0.5675 -0.1579 -0.4515
   20TAL    C9517265  11.482   6.058   5.366 -0.8386 -0.1454 -0.4718
   20TAL    C9617266  11.474   6.160   5.476 -0.5588  0.4507 -0.3663
   20TAL    C9717267  11.465   6.305   5.444  0.1049  0.1554  0.1842
   20TAL    C9817268  11.596   6.359   5.390 -0.6170 -0.2420 -0.4043
   20TAL    C9917269  11.603   6.508   5.365  0.3648 -0.2653 -0.1834
   20TAL   C10017270  11.727   6.566   5.301  0.6895  0.3293  0.2247
   21HTM   C10117271  11.757   5.897   5.362  0.0213 -0.2229 -0.5237
   21HTM   C10217272  11.864   5.820   5.395  0.2847 -0.0763 -1.0409
   21HTM   C10317273  11.988   5.894   5.401  0.1260  0.1969 -1.0884
   21HTM   C10417274  11.975   6.027   5.374 -0.2586  0.2592 -0.6071
   21HTM    S1117275  11.803   6.070   5.338 -0.4516 -0.0253 -0.0528
   22TAL   C10517276  12.104   5.805   5.446 -0.0590  0.8332  0.4413
   22TAL   C10617277  12.132   5.812   5.597  0.2977 -0.2023 -0.3586
   22TAL   C10717278  12.256   5.739   5.625 -0.6985  0.2707 -0.1073
   22TAL   C10817279  12.358   5.795   5.719 -0.4556  0.4087 -0.2562
   22TAL   C10917280  12.485   5.711   5.744 -0.6937 -0.5027 -0.1447
   22TAL   C11017281  12.568   5.763   5.861 -0.3080  0.2102  0.1493
   23HTM   C11117282  12.079   6.129   5.371 -0.1483  0.1498  0.2131
   23HTM   C11217283  12.070   6.255   5.322  0.1428  0.1066  0.0420
   23HTM   C11317284  12.190   6.333   5.338  0.3394 -0.1638 -0.1109
   23HTM   C11417285  12.291   6.266   5.400  0.1979 -0.3270 -0.0561
   23HTM    S1217286  12.242   6.097   5.442 -0.1974 -0.1505  0.1942
   24TAL   C11517287  12.189   6.467   5.277  0.1299  0.3112  0.2322
   24TAL   C11617288  12.100   6.581   5.346 -0.6091  0.3923  0.3074
   24TAL   C11717289  12.166   6.641   5.475  0.0303 -0.6781  0.1455
   24TAL   C11817290  12.275   6.750   5.460 -0.1923 -0.1832 -0.3634
   24TAL   C11917291  12.314   6.809   5.590 -0.0714 -1.3130 -0.5110
   24TAL   C12017292  12.379   6.946   5.580  0.0305  0.2327 -1.0124
   25HTM   C12117293  12.424   6.307   5.454  0.3756  0.1831  0.1975
   25HTM   C12217294  12.456   6.393   5.555  0.7938 -0.1016  0.3095
   25HTM   C12317295  12.594   6.388   5.594  0.7963 -0.7467  0.2272
   25HTM   C12417296  12.668   6.298   5.523  0.3800 -0.9540  0.0524
   25HTM    S1317297  12.568   6.213   5.399 -0.0509 -0.3461 -0.0223
   26TAL   C12517298  12.657   6.473   5.704  0.2492  0.4541 -0.0938
   26TAL   C12617299  12.563   6.533   5.812  0.2953 -0.3458  0.3347
   26TAL   C12717300  12.634   6.625   5.911 -0.1452  0.4244  0.3752
   26TAL   C12817301  12.705   6.743   5.851 -0.9106  0.4211  0.2181
   26TAL   C12917302  12.773   6.844   5.939 -0.2610 -0.4598 -0.9401
   26TAL   C13017303  12.800   6.969   5.852 -0.3399  0.1812  0.1625
   27HTM   C13117304  12.797   6.252   5.550 -0.0879  0.1713  0.5211
   27HTM   C13217305  12.835   6.137   5.614 -0.0614  0.2258  0.6030
   27HTM   C13317306  12.975   6.108   5.603 -0.1128  0.0703  0.3324
   27HTM   C13417307  13.045   6.201   5.532 -0.1784 -0.1025  0.0445
   27HTM    S1417308  12.938   6.333   5.471 -0.1805 -0.0820  0.0926
   28TAL   C13517309  13.026   5.989   5.682 -0.1652 -0.4327 -0.0955
   28TAL   C13617310  13.084   6.026   5.815 -0.3952 -0.0476  0.2334
   28TAL   C13717311  13.091   5.909   5.911  0.1089 -0.2005 -0.5577
   28TAL   C13817312  13.125   5.929   6.062 -0.6129 -0.1562 -0.1449
   28TAL   C13917313  13.084   6.056   6.131 -0.9065  0.3255 -0.2299
   28TAL   C14017314  13.089   6.037   6.280  0.2992  0.2550  0.2086
   29HTM   C14117315  13.188   6.201   5.494  0.0565 -0.1353  0.3279
   29HTM   C14217316  13.255   6.309   5.445 -0.0622 -0.2453 -0.0823
   29HTM   C14317317  13.388   6.279   5.398 -0.2639 -0.3953 -0.5581
   29HTM   C14417318  13.422   6.147   5.411 -0.2989 -0.3998 -0.5105
   29HTM    S1517319  13.288   6.051   5.484 -0.0781 -0.2132  0.1436
   30TAL   C14517320  13.483   6.384   5.353  0.0938  0.3597  0.9649
   30TAL   C14617321  13.509   6.504   5.434  0.6078 -0.0962 -0.4386
   30TAL   C14717322  13.390   6.601   5.462  0.3375 -0.1353  0.2148
   30TAL   C14817323  13.315   6.650   5.334 -0.3275  0.1280  0.1798
   30TAL   C14917324  13.196   6.735   5.357  0.2091 -0.8206 -0.6741
   30TAL   C15017325  13.086   6.705   5.258 -0.1173 -0.2068 -0.2046
   31HTM   C15117326  13.548   6.067   5.392 -0.1338  0.3279 -0.1633
   31HTM   C15217327  13.544   5.931   5.390 -0.2844  0.3259  0.2761
   31HTM   C15317328  13.674   5.870   5.374 -0.3426  0.1264  0.5448
   31HTM   C15417329  13.776   5.960   5.362 -0.2360 -0.0236  0.3098
   31HTM    S1617330  13.716   6.129   5.372 -0.0526  0.0759 -0.2731
   32TAL   C15517331  13.688   5.720   5.348 -0.5009  0.4936  0.3641
   32TAL   C15617332  13.572   5.641   5.411 -0.4800 -0.1870 -0.8817
   32TAL   C15717333  13.601   5.493   5.451 -0.3524  0.5643  0.1283
   32TAL   C15817334  13.634   5.398   5.339 -0.1707  0.0876 -0.5491
   32TAL   C15917335  13.532   5.370   5.236  0.0608 -0.3487 -0.1446
   32TAL   C16017336  13.593   5.273   5.138  0.1593 -0.0998  0.1384
   33HTM   C16117337  13.919   5.951   5.371 -0.3938 -0.0619 -0.0805
   33HTM   C16217338  14.004   6.043   5.425 -0.5009  0.0138 -0.0405
   33HTM   C16317339  14.143   6.005   5.418 -0.4778  0.0560  0.1831
   33HTM   C16417340  14.163   5.884   5.358 -0.3532  0.0126  0.3134
   33HTM    S1717341  14.008   5.809   5.306 -0.2548 -0.0859  0.1631
   34TAL   C16517342  14.255   6.103   5.463  0.3786  0.2168 -0.4590
   34TAL   C16617343  14.219   6.235   5.530 -0.1049  0.2602 -0.8455
   34TAL   C16717344  14.163   6.220   5.670  0.2038 -0.5408  0.3158
   34TAL   C16817345  14.122   6.347   5.747  0.0732  0.0642 -0.6255
   34TAL   C16917346  14.228   6.456   5.742 -0.1832  0.9592  0.2416
   34TAL   C17017347  14.175   6.592   5.778 -0.3580  0.4527 -0.4021
   35HTM   C17117348  14.285   5.797   5.344 -0.2454 -0.2132  0.6286
   35HTM   C17217349  14.280   5.661   5.333 -0.1938 -0.2220  0.7124
   35HTM   C17317350  14.408   5.597   5.348 -0.0591 -0.1135  0.0534
   35HTM   C17417351  14.511   5.683   5.370 -0.0076 -0.0222 -0.5331
   35HTM    S1817352  14.453   5.854   5.374 -0.1268 -0.0666 -0.2963
   36TAL   C17517353  14.432   5.450   5.318  0.3103  0.1606 -0.6736
   36TAL   C17617354  14.330   5.345   5.365  0.1447  1.1998  0.2815
   36TAL   C17717355  14.371   5.206   5.318  0.7312  0.0902  0.6289
   36TAL   C17817356  14.259   5.099   5.350  0.1554 -0.7418 -0.8331
   36TAL   C17917357  14.246   5.071   5.494  0.0180  0.2591 -0.4274
   36TAL   C18017358  14.115   4.992   5.517  0.3696 -0.1481  0.1241
   37HTM   C18117359  14.651   5.672   5.398 -0.0675 -0.0150 -0.0081
   37HTM   C18217360  14.752   5.763   5.396  0.0899 -0.2050 -0.7584
   37HTM   C18317361  14.880   5.709   5.434  0.2046 -0.3614 -1.3590
   37HTM   C18417362  14.876   5.576   5.465  0.1347 -0.2906 -1.0669
   37HTM    S1917363  14.709   5.509   5.449 -0.0834 -0.0187 -0.0021
   38TAL   C18517364  15.008   5.793   5.430  0.5402  0.3330  0.0930
   38TAL   C18617365  15.150   5.741   5.427  0.1311  0.2086 -0.0518
   38TAL   C18717366  15.244   5.861   5.407  0.5949  0.3541 -0.7295
   38TAL   C18817367  15.389   5.822   5.399  0.2885  0.0973 -0.0173
   38TAL   C18917368  15.461   5.941   5.353 -0.2970 -0.0638 -0.2226
   38TAL   C19017369  15.603   5.894   5.332 -0.0183  0.4739  0.2640
   39HTM   C19117370  14.962   5.475   5.519  0.2792  0.0520  0.0588
   39HTM   C19217371  15.054   5.394   5.460  0.4437  0.2589  0.0315
   39HTM   C19317372  15.109   5.295   5.548  0.3033  0.0417 -0.1252
   39HTM   C19417373  15.059   5.300   5.675  0.0322 -0.3307 -0.2177
   39HTM    S2017374  14.937   5.432   5.692 -0.0683 -0.4370 -0.1126
   40TAL   C19517375  15.206   5.197   5.483  0.2284 -0.4554  0.4201
   40TAL   C19617376  15.296   5.112   5.559 -0.9401 -0.5104  0.2201
   40TAL   C19717377  15.413   5.166   5.648 -0.3635 -0.2153  0.3316
   40TAL   C19817378  15.472   5.042   5.730  0.3519  0.2797  0.9196
   40TAL   C19917379  15.614   5.061   5.780  0.0403 -0.1142 -0.6006
   40TAL   C20017380  15.716   5.136   5.691  0.7359 -0.3276  0.0379
   41HTM   C20117381  15.069   5.201   5.783 -0.1045 -0.1668 -0.0879
   41HTM   C20217382  15.109   5.219   5.912 -0.1731 -0.2143 -0.0598
   41HTM   C20317383  15.085   5.105   5.996 -0.3922 -0.1769 -0.0708
   41HTM   C20417384  15.028   4.999   5.931 -0.4904 -0.1016 -0.1067
   41HTM    S2117385  14.999   5.037   5.757 -0.3131 -0.0712 -0.1301
   42TAL   C20517386  15.131   5.109   6.140 -0.2700 -0.1374 -0.0494
   42TAL   C20617387  15.254   5.026   6.179 -0.0696 -0.0824  0.1614
   42TAL   C20717388  15.387   5.045   6.111 -0.4015 -0.4746 -0.4565
   42TAL   C20817389  15.511   4.977   6.170  0.2808 -0.2264 -0.1976
   42TAL   C20917390  15.538   4.826   6.173  0.5306 -0.4290 -0.6650
   42TAL   C21017391  15.520   4.742   6.053 -0.6828  0.5476  0.0866
   43HTM   C21117392  14.977   4.873   5.975 -0.1997  0.3535  0.2607
   43HTM   C21217393  14.853   4.823   5.946 -0.2222  0.2339  0.5655
   43HTM   C21317394  14.832   4.690   5.997  0.0405  0.2036  0.6003
   43HTM   C21417395  14.939   4.639   6.065  0.2637  0.3007  0.3217
   43HTM    S2217396  15.076   4.756   6.069  0.1583  0.4379 -0.0082
   44TAL   C21517397  14.690   4.626   5.987 -0.7589  0.0833  0.2848
   44TAL   C21617398  14.633   4.605   5.845 -0.5234  0.5252 -0.2221
   44TAL   C21717399  14.578   4.710   5.754 -0.4546 -0.3328 -0.3613
   44TAL   C21817400  14.524   4.674   5.617 -0.6636  0.0158 -0.2422
   44TAL   C21917401  14.472   4.786   5.532  0.4942 -0.0329 -0.1496
   44TAL   C22017402  14.438   4.739   5.390  0.7550  0.1306 -0.4338
   45HTM   C22117403  14.971   4.499   6.103 -0.1641 -0.2283 -0.1385
   45HTM   C22217404  15.089   4.441   6.070 -0.1965 -0.3600 -0.0236
   45HTM   C22317405  15.095   4.300   6.101 -0.3068 -0.3211  0.1709
   45HTM   C22417406  14.982   4.252   6.159 -0.3586 -0.1600  0.2039
   45HTM    S2317407  14.857   4.381   6.178 -0.2716 -0.0436 -0.0093
   46TAL   C22517408  15.212   4.210   6.060 -0.3605  0.2578  0.2556
   46TAL   C22617409  15.310   4.249   5.948 -0.3719 -0.0856 -0.0589
   46TAL   C22717410  15.401   4.380   5.968 -0.0677  0.8332 -0.2113
   46TAL   C22817411  15.537   4.399   5.902  0.1997  0.0971  0.4944
   46TAL   C22917412  15.562   4.332   5.763 -0.3491 -0.6656  0.1768
   46TAL   C23017413  15.709   4.326   5.720 -0.2507 -0.1321 -0.3550
   47HTM   C23117414  14.936   4.117   6.201  0.0961 -0.0354 -0.0837
   47HTM   C23217415  14.806   4.086   6.225  0.0334  0.0741 -0.2811
   47HTM   C23317416  14.782   3.946   6.248 -0.1175  0.0955 -0.3035
   47HTM   C23417417  14.895   3.870   6.241 -0.1693  0.0022 -0.1239
   47HTM    S2417418  15.041   3.970   6.205 -0.0309 -0.1208  0.0897
   48TAL   C23517419  14.637   3.895   6.280 -0.1875 -0.2858 -0.1919
   48TAL   C23617420  14.605   3.746   6.292 -0.5624 -0.2175  0.0090
   48TAL   C23717421  14.457   3.722   6.308  0.3558  0.5123  0.2149
   48TAL   C23817422  14.393   3.586   6.333  0.3098 -0.2246  0.4225
   48TAL   C23917423  14.244   3.592   6.303 -0.8263 -0.3187 -0.0262
   48TAL   C24017424  14.163   3.490   6.375  0.2614  0.5146 -0.0403
    1HTM     C117425   3.555   5.108   8.323 -0.3285 -0.1602  0.2693
    1HTM     C217426   3.427   5.071   8.295 -0.1422 -0.2744 -0.4663
    1HTM     C317427   3.412   4.931   8.265  0.2599 -0.1504 -1.2503
    1HTM     C417428   3.529   4.861   8.269  0.3801  0.0583 -1.1121
    1HTM     S117429   3.668   4.968   8.312 -0.0082  0.1150  0.0264
    2TAL     C517430   3.274   4.868   8.232  0.1219 -0.2499  0.1562
    2TAL     C617431   3.173   4.963   8.173 -0.2265 -0.8675 -0.4410
    2TAL     C717432   3.198   5.008   8.028 -0.3788 -0.0999 -0.2807
    2TAL     C817433   3.316   5.095   7.985  0.1750  0.7754  0.7946
    2TAL     C917434   3.298   5.245   8.010 -0.8694  0.2046 -0.2841
    2TAL    C1017435   3.424   5.314   7.972  0.6116  0.4968  1.2289
    3HTM    C1117436   3.561   4.724   8.231 -0.0462  0.1766 -0.3209
    3HTM    C1217437   3.474   4.623   8.201  0.0820  0.0224 -0.1688
    3HTM    C1317438   3.539   4.497   8.177  0.2260  0.0114  0.2604
    3HTM    C1417439   3.675   4.502   8.188  0.2075  0.1578  0.4350
    3HTM     S217440   3.732   4.668   8.230  0.0051  0.3214  0.0686
    4TAL    C1517441   3.451   4.373   8.134  0.2467 -0.6468 -0.1780
    4TAL    C1617442   3.345   4.340   8.234 -0.0857 -0.2056  0.2625
    4TAL    C1717443   3.278   4.202   8.227  0.6670 -0.1885 -0.8846
    4TAL    C1817444   3.252   4.133   8.097 -0.2590 -1.0985  0.8719
    4TAL    C1917445   3.138   4.202   8.011  0.0615  0.2798 -0.5655
    4TAL    C2017446   3.113   4.144   7.873  0.0538 -0.1682  0.4447
    5HTM    C2117447   3.783   4.398   8.179  0.0118 -0.3139  0.5595
    5HTM    C2217448   3.768   4.266   8.209  0.1395 -0.3154  0.6170
    5HTM    C2317449   3.893   4.194   8.219  0.1997 -0.2346  0.4487
    5HTM    C2417450   4.003   4.272   8.197  0.1179 -0.1714  0.2633
    5HTM     S317451   3.957   4.442   8.161 -0.0427 -0.2092  0.2866
    6TAL    C2517452   3.900   4.045   8.252  0.7538 -0.0805  0.9839
    6TAL    C2617453   3.836   3.946   8.163  0.3681  0.0579  0.9340
    6TAL    C2717454   3.680   3.944   8.158 -0.5558 -0.2956 -0.3207
    6TAL    C2817455   3.625   3.823   8.082  0.5149 -0.6977  0.4688
    6TAL    C2917456   3.472   3.832   8.091  0.4056  0.1845 -0.2852
    6TAL    C3017457   3.399   3.715   8.030 -0.1377  0.3378  0.2467
    7HTM    C3117458   4.144   4.247   8.202 -0.0860 -0.2825  0.2024
    7HTM    C3217459   4.244   4.338   8.216 -0.0737 -0.3331  0.4454
    7HTM    C3317460   4.376   4.281   8.211 -0.0844 -0.3581  0.4497
    7HTM    C3417461   4.377   4.146   8.193 -0.1051 -0.3260  0.2105
    7HTM     S417462   4.209   4.080   8.181 -0.1120 -0.2620 -0.0409
    8TAL    C3517463   4.497   4.364   8.232  0.0064 -0.0712 -0.8406
    8TAL    C3617464   4.564   4.431   8.107  0.0538  0.4372 -0.4888
    8TAL    C3717465   4.680   4.516   8.132  0.2489  0.5200  0.2268
    8TAL    C3817466   4.643   4.631   8.224  0.2949  0.5585 -0.4207
    8TAL    C3917467   4.756   4.730   8.262  0.0527 -0.8650 -0.2435
    8TAL    C4017468   4.880   4.677   8.333 -0.1616  0.3860  0.3961
    9HTM    C4117469   4.487   4.049   8.180 -0.1006 -0.0176 -0.7320
    9HTM    C4217470   4.476   3.914   8.199 -0.2639 -0.0454 -1.0257
    9HTM    C4317471   4.601   3.843   8.184 -0.3040 -0.1342 -0.9398
    9HTM    C4417472   4.706   3.924   8.154 -0.1714 -0.1742 -0.5808
    9HTM     S517473   4.656   4.097   8.143  0.0161 -0.1019 -0.3213
   10TAL    C4517474   4.609   3.694   8.187  0.4047  0.4692  0.1650
   10TAL    C4617475   4.574   3.615   8.310  0.1215 -0.2283 -0.5788
   10TAL    C4717476   4.657   3.627   8.439  0.6202  0.1684  0.7569
   10TAL    C4817477   4.802   3.616   8.417 -0.0886  0.6305 -0.0430
   10TAL    C4917478   4.889   3.617   8.543  0.5061 -0.3441  0.3040
   10TAL    C5017479   5.029   3.576   8.511 -0.4449 -0.4059 -0.5943
   11HTM    C5117480   4.850   3.893   8.159  0.0513 -0.3234  0.1126
   11HTM    C5217481   4.917   3.792   8.097  0.2673 -0.2245  0.1822
   11HTM    C5317482   5.056   3.783   8.133  0.2546  0.0155  0.2875
   11HTM    C5417483   5.095   3.879   8.222  0.0287  0.0994  0.2980
   11HTM     S617484   4.958   3.987   8.268 -0.1871 -0.1200  0.1753
   12TAL    C5517485   5.129   3.671   8.065  0.5236  0.3355  0.6966
   12TAL    C5617486   5.132   3.544   8.149  0.3077 -0.3695  0.2194
   12TAL    C5717487   5.173   3.417   8.071  0.1107 -0.5627 -0.1027
   12TAL    C5817488   5.166   3.281   8.146 -0.2870 -0.4897  0.1590
   12TAL    C5917489   5.203   3.169   8.048  0.0155 -0.3963 -0.0425
   12TAL    C6017490   5.168   3.033   8.110 -0.4938 -0.3086  0.5600
   13HTM    C6117491   5.229   3.899   8.270 -0.1161  0.1681 -0.3101
   13HTM    C6217492   5.300   3.802   8.335 -0.4191  0.1266 -0.0401
   13HTM    C6317493   5.425   3.848   8.388 -0.4971  0.0010  0.2570
   13HTM    C6417494   5.450   3.980   8.363 -0.2532 -0.0533  0.2125
   13HTM     S717495   5.316   4.057   8.270  0.0960  0.0508 -0.2103
   14TAL    C6517496   5.529   3.767   8.465 -0.2167 -0.0879 -0.2000
   14TAL    C6617497   5.531   3.616   8.446  0.2567  0.4369 -0.8371
   14TAL    C6717498   5.420   3.525   8.500 -0.0150  0.6517 -0.5520
   14TAL    C6817499   5.421   3.383   8.455  0.1638 -0.1376 -0.3852
   14TAL    C6917500   5.300   3.310   8.503  0.2453 -0.4645 -0.3690
   14TAL    C7017501   5.279   3.167   8.447 -0.0961 -0.8674 -0.2286
   15HTM    C7117502   5.562   4.069   8.386  0.0035 -0.4573 -0.1123
   15HTM    C7217503   5.561   4.204   8.408 -0.5150 -0.4394 -0.2289
   15HTM    C7317504   5.692   4.264   8.402 -0.7281  0.0374 -0.1402
   15HTM    C7417505   5.792   4.175   8.376 -0.3724  0.3831  0.0436
   15HTM     S817506   5.729   4.007   8.357  0.2649  0.1310  0.1212
   16TAL    C7517507   5.720   4.412   8.435 -0.2427  0.1236  0.2736
   16TAL    C7617508   5.616   4.499   8.512 -0.1037 -0.1275  0.2171
   16TAL    C7717509   5.667   4.632   8.552  0.1314 -0.0126 -0.0576
   16TAL    C7817510   5.559   4.720   8.600 -0.3245  0.0145 -0.1195
   16TAL    C7917511   5.593   4.872   8.608  0.2956  0.3946 -0.1377
   16TAL    C8017512   5.493   4.939   8.694  0.0898 -0.4577  0.1757
   17HTM    C8117513   5.937   4.188   8.362  0.0267  0.4190 -0.0326
   17HTM    C8217514   6.019   4.080   8.352 -0.2642  0.2351 -0.4516
   17HTM    C8317515   6.153   4.112   8.311 -0.3116 -0.0286 -0.8254
   17HTM    C8417516   6.174   4.246   8.291 -0.0570 -0.0454 -0.6912
   17HTM     S917517   6.024   4.341   8.321  0.2649  0.2724 -0.0772
   18TAL    C8517518   6.250   3.989   8.298  0.2474 -0.2490 -0.3149
   18TAL    C8617519   6.402   4.001   8.311 -0.2254  0.0493 -0.2104
   18TAL    C8717520   6.467   3.889   8.224 -0.4901  0.1137  0.2858
   18TAL    C8817521   6.452   3.739   8.257 -0.3410 -0.5780  0.0635
   18TAL    C8917522   6.370   3.690   8.372 -0.5284 -0.0771 -0.7032
   18TAL    C9017523   6.406   3.536   8.394  0.0551  0.6877 -0.2466
   19HTM    C9117524   6.286   4.320   8.234  0.0682  0.1265  0.0025
   19HTM    C9217525   6.351   4.287   8.118  0.2942 -0.1545  0.2069
   19HTM    C9317526   6.467   4.368   8.092  0.4554 -0.3448  0.3328
   19HTM    C9417527   6.491   4.463   8.188  0.3525 -0.2081  0.2245
   19HTM    S1017528   6.367   4.457   8.319  0.0414  0.1739 -0.0474
   20TAL    C9517529   6.541   4.344   7.968  0.3414 -0.9444 -0.0447
   20TAL    C9617530   6.477   4.381   7.834  0.1877  0.7764 -0.2272
   20TAL    C9717531   6.569   4.403   7.718  0.0460 -0.6872  0.1917
   20TAL    C9817532   6.672   4.295   7.670 -0.6298  0.0121 -0.4860
   20TAL    C9917533   6.626   4.149   7.649  0.2187 -0.3203  0.0812
   20TAL   C10017534   6.727   4.076   7.564 -0.2112  0.2371 -0.4382
   21HTM   C10117535   6.591   4.570   8.191  0.3218 -0.5328  0.0639
   21HTM   C10217536   6.573   4.697   8.238  0.0656 -0.6752  0.3500
   21HTM   C10317537   6.684   4.785   8.213 -0.1628 -0.3593  0.4363
   21HTM   C10417538   6.788   4.725   8.147 -0.0807  0.0240  0.2147
   21HTM    S1117539   6.752   4.552   8.111  0.2944  0.0157 -0.1218
   22TAL   C10517540   6.671   4.931   8.262 -0.0484 -0.2455 -0.5233
   22TAL   C10617541   6.581   5.013   8.172 -0.5301  0.2203  0.2098
   22TAL   C10717542   6.577   5.156   8.208  1.1553 -0.9027 -0.2470
   22TAL   C10817543   6.487   5.237   8.117  0.3910  0.5322 -0.3269
   22TAL   C10917544   6.485   5.384   8.149 -0.5396 -0.3551  0.3774
   22TAL   C11017545   6.383   5.465   8.060 -0.4070  0.0554 -0.0861
   23HTM   C11117546   6.917   4.777   8.095  0.0633  0.2343 -0.1683
   23HTM   C11217547   6.940   4.908   8.064  0.4115  0.3014  0.3629
   23HTM   C11317548   7.074   4.933   8.016  0.5145  0.1621  0.5760
   23HTM   C11417549   7.152   4.821   8.010  0.2451 -0.0114  0.2080
   23HTM    S1217550   7.063   4.675   8.066 -0.1629 -0.0123 -0.4415
   24TAL   C11517551   7.100   5.080   7.972 -0.2934 -0.0850 -0.1187
   24TAL   C11617552   7.153   5.170   8.081 -0.6178 -0.2247  0.0827
   24TAL   C11717553   7.187   5.310   8.036  0.1392 -0.0114 -0.0360
   24TAL   C11817554   7.082   5.410   7.983 -0.0382 -0.1803 -0.6088
   24TAL   C11917555   7.117   5.556   7.963 -0.6023  0.6692  0.4157
   24TAL   C12017556   7.011   5.658   7.933  0.0055  0.6684  0.0273
   25HTM   C12117557   7.283   4.805   7.942  0.1290 -0.0080  0.0130
   25HTM   C12217558   7.336   4.682   7.918  0.1178 -0.0005 -0.0482
   25HTM   C12317559   7.462   4.685   7.848  0.0155  0.0153 -0.2308
   25HTM   C12417560   7.505   4.811   7.819 -0.0506  0.0203 -0.3089
   25HTM    S1317561   7.389   4.936   7.879  0.0113  0.0050 -0.1563
   26TAL   C12517562   7.532   4.555   7.812 -0.1710 -0.2774  0.0947
   26TAL   C12617563   7.442   4.442   7.762  0.4270  0.5951 -0.1037
   26TAL   C12717564   7.524   4.335   7.693 -0.2500 -0.2105 -0.4345
   26TAL   C12817565   7.459   4.200   7.685 -0.2173  0.2279  0.1152
   26TAL   C12917566   7.553   4.081   7.685 -0.0325 -0.0115 -0.2646
   26TAL   C13017567   7.486   3.952   7.648  0.1016  0.7065 -1.0709
   27HTM   C13117568   7.630   4.857   7.764 -0.2122 -0.4844 -0.8326
   27HTM   C13217569   7.651   4.978   7.703 -0.4506 -0.7048 -1.3602
   27HTM   C13317570   7.789   5.001   7.667 -0.4666 -0.5176 -1.3025
   27HTM   C13417571   7.872   4.898   7.700 -0.2402 -0.1540 -0.7309
   27HTM    S1417572   7.783   4.763   7.780  0.0129 -0.0194 -0.2174
   28TAL   C13517573   7.827   5.125   7.597 -0.0996  0.7508  0.2255
   28TAL   C13617574   7.746   5.178   7.476 -0.4200 -0.2562 -0.1415
   28TAL   C13717575   7.749   5.322   7.438 -0.2807  0.3146  0.2406
   28TAL   C13817576   7.641   5.380   7.341  0.4569  0.3581  0.5684
   28TAL   C13917577   7.495   5.344   7.359 -0.5361  0.0657 -0.4036
   28TAL   C14017578   7.401   5.394   7.254  0.0261 -0.0556 -0.2432
   29HTM   C14117579   8.017   4.878   7.683 -0.1460 -0.0366 -0.0805
   29HTM   C14217580   8.083   4.764   7.720 -0.0091  0.1054  0.1173
   29HTM   C14317581   8.226   4.772   7.705 -0.0162  0.2615  0.1299
   29HTM   C14417582   8.269   4.892   7.657 -0.1582  0.2384 -0.0585
   29HTM    S1517583   8.132   5.005   7.626 -0.2960  0.0159 -0.2680
   30TAL   C14517584   8.304   4.650   7.742 -0.4672  0.3820 -0.5490
   30TAL   C14617585   8.316   4.557   7.623 -0.6028  0.0841 -0.5548
   30TAL   C14717586   8.338   4.421   7.685  0.9234  1.0905 -0.2460
   30TAL   C14817587   8.311   4.307   7.592  0.4827  0.5794  0.0613
   30TAL   C14917588   8.328   4.164   7.651  0.2282 -0.4871 -0.4144
   30TAL   C15017589   8.338   4.057   7.543 -0.3185  0.8562  0.2604
   31HTM   C15117590   8.408   4.931   7.632  0.4417  0.1326  0.1268
   31HTM   C15217591   8.518   4.881   7.695  0.4320  0.3262  0.2997
   31HTM   C15317592   8.641   4.947   7.661  0.4029  0.3848  0.3083
   31HTM   C15417593   8.625   5.049   7.571  0.3892  0.2360  0.1410
   31HTM    S1617594   8.452   5.068   7.523  0.4138  0.0085 -0.0413
   32TAL   C15517595   8.756   4.908   7.746  0.5300  0.7207  0.0182
   32TAL   C15617596   8.863   4.832   7.666 -0.1135  0.5700 -0.5379
   32TAL   C15717597   8.988   4.795   7.742 -0.3715  1.3619  0.2413
   32TAL   C15817598   9.070   4.904   7.791 -0.0908 -0.1685  0.4046
   32TAL   C15917599   9.171   4.847   7.889 -0.4960  0.3218 -0.2209
   32TAL   C16017600   9.282   4.939   7.932  0.0071  0.6396 -0.5252
   33HTM   C16117601   8.733   5.111   7.503  0.3315 -0.1013  0.3301
   33HTM   C16217602   8.819   5.050   7.417  0.5164 -0.3450  0.6888
   33HTM   C16317603   8.944   5.120   7.400  0.4768 -0.2947  0.6104
   33HTM   C16417604   8.952   5.235   7.473  0.2619 -0.0120  0.1919
   33HTM    S1717605   8.803   5.264   7.569  0.0911  0.2140 -0.1377
   34TAL   C16517606   9.042   5.054   7.307  0.2137 -0.1399 -0.0403
   34TAL   C16617607   9.132   4.959   7.382  0.1704 -0.0612  0.4847
   34TAL   C16717608   9.164   4.841   7.288 -0.6706 -0.1800  1.0428
   34TAL   C16817609   9.260   4.731   7.325  0.3675 -0.8629 -0.2027
   34TAL   C16917610   9.277   4.633   7.209 -0.5470 -0.1026 -0.5467
   34TAL   C17017611   9.398   4.549   7.246  0.4066  0.6595  0.0703
   35HTM   C17117612   9.060   5.339   7.483  0.1691 -0.1712 -0.4849
   35HTM   C17217613   9.045   5.474   7.499 -0.0217 -0.2172 -0.2639
   35HTM   C17317614   9.169   5.546   7.498 -0.1080 -0.0644  0.0861
   35HTM   C17417615   9.279   5.467   7.482  0.0171  0.0983  0.1323
   35HTM    S1817616   9.233   5.293   7.466  0.2553  0.0709 -0.2663
   36TAL   C17517617   9.170   5.699   7.523 -0.0359  0.2159 -0.3345
   36TAL   C17617618   9.128   5.738   7.660  0.3595 -0.4196 -0.2877
   36TAL   C17717619   9.134   5.891   7.695 -0.8097  0.0640  0.8061
   36TAL   C17817620   9.085   5.994   7.595  0.2190  0.3946 -0.4073
   36TAL   C17917621   9.133   6.127   7.617 -0.4785  0.2681 -0.3448
   36TAL   C18017622   9.053   6.229   7.533  0.0749  0.0630  0.3775
   37HTM   C18117623   9.418   5.494   7.470  0.1207 -0.1151 -0.1974
   37HTM   C18217624   9.517   5.403   7.451  0.1422 -0.1273 -0.0293
   37HTM   C18317625   9.650   5.459   7.452  0.1541 -0.1614  0.3157
   37HTM   C18417626   9.651   5.594   7.472  0.1418 -0.1754  0.4111
   37HTM    S1917627   9.485   5.660   7.491  0.1138 -0.1463  0.0693
   38TAL   C18517628   9.768   5.365   7.408  0.3127 -0.4007 -0.2116
   38TAL   C18617629   9.748   5.217   7.416  0.1218  0.6110  0.0287
   38TAL   C18717630   9.840   5.142   7.322 -0.2005 -0.3138  0.3868
   38TAL   C18817631   9.824   4.991   7.306  0.4661 -0.0656 -0.1714
   38TAL   C18917632   9.688   4.945   7.266  0.0178 -0.2438 -0.3602
   38TAL   C19017633   9.662   4.794   7.250 -0.1146 -0.7832  0.0438
   39HTM   C19117634   9.763   5.686   7.479  0.1148  0.1198  0.3718
   39HTM   C19217635   9.795   5.782   7.571  0.1360  0.2518  0.2279
   39HTM   C19317636   9.914   5.856   7.539  0.2692  0.0367  0.2213
   39HTM   C19417637   9.973   5.818   7.422  0.3496 -0.2594  0.3600
   39HTM    S2017638   9.882   5.683   7.343  0.2626 -0.2894  0.5109
   40TAL   C19517639   9.964   5.965   7.638  0.6080 -0.8880  0.5690
   40TAL   C19617640   9.884   6.093   7.620 -0.0964  0.9317 -0.2483
   40TAL   C19717641   9.913   6.211   7.712  1.0753 -0.3450 -0.6314
   40TAL   C19817642   9.819   6.336   7.675 -0.3947 -0.0081  0.0754
   40TAL   C19917643   9.838   6.464   7.752  0.6299 -0.7205 -0.4996
   40TAL   C20017644   9.982   6.501   7.782 -0.5798  0.1251  0.1609
   41HTM   C20117645  10.091   5.873   7.360  0.0295  0.1194 -0.0545
   41HTM   C20217646  10.116   5.894   7.228  0.0186  0.3831 -0.0141
   41HTM   C20317647  10.251   5.936   7.201  0.0337  0.3765  0.0515
   41HTM   C20417648  10.329   5.946   7.313  0.0562  0.1076  0.0614
   41HTM    S2117649  10.237   5.904   7.462  0.0598 -0.1599 -0.0125
   42TAL   C20517650  10.298   5.964   7.065 -0.5222  0.0685  0.5138
   42TAL   C20617651  10.274   5.868   6.950  0.2580 -0.4583 -0.2454
   42TAL   C20717652  10.309   5.716   6.968 -0.1904  0.0652  0.5878
   42TAL   C20817653  10.302   5.633   6.835 -0.1487  0.2989  0.5366
   42TAL   C20917654  10.355   5.484   6.837  0.3355  0.4140  0.2287
   42TAL   C21017655  10.307   5.404   6.719 -0.8716  0.7198  0.2305
   43HTM   C21117656  10.475   5.975   7.316  0.4745  0.3343  0.1096
   43HTM   C21217657  10.525   6.099   7.338  0.8088  0.3047 -0.4721
   43HTM   C21317658  10.668   6.108   7.325  0.8010 -0.0696 -0.8173
   43HTM   C21417659  10.727   5.989   7.293  0.4608 -0.3255 -0.4988
   43HTM    S2217660  10.606   5.856   7.277  0.1212 -0.1117  0.2680
   44TAL   C21517661  10.730   6.241   7.356 -0.1683  0.2896  0.6244
   44TAL   C21617662  10.659   6.370   7.314  0.2230 -0.4252 -0.2453
   44TAL   C21717663  10.737   6.505   7.322 -0.0493  0.1189 -0.6162
   44TAL   C21817664  10.668   6.629   7.258  0.4154 -0.2922  0.4325
   44TAL   C21917665  10.670   6.627   7.107  0.0473  0.2527 -0.1282
   44TAL   C22017666  10.642   6.758   7.035  0.0629  0.3441  0.3859
   45HTM   C22117667  10.868   5.951   7.276  0.0597 -0.0626 -0.0841
   45HTM   C22217668  10.920   5.826   7.253  0.2889  0.0308 -0.0794
   45HTM   C22317669  11.062   5.826   7.228  0.3250  0.2680  0.1228
   45HTM   C22417670  11.118   5.950   7.233  0.1234  0.3557  0.2717
   45HTM    S2317671  10.996   6.078   7.268 -0.1296  0.1437  0.1682
   46TAL   C22517672  11.138   5.693   7.194  0.8348  0.5874 -0.2685
   46TAL   C22617673  11.066   5.554   7.187  0.6488 -0.5164  0.5223
   46TAL   C22717674  11.142   5.432   7.122 -0.4789 -0.5285  0.1953
   46TAL   C22817675  11.047   5.316   7.102  0.2895 -0.4837  0.1472
   46TAL   C22917676  11.028   5.223   7.218  0.0829  0.0945  0.1641
   46TAL   C23017677  10.915   5.117   7.197 -0.5207  0.2380  0.2533
   47HTM   C23117678  11.258   5.995   7.211 -0.1592 -0.0864 -0.1949
   47HTM   C23217679  11.303   6.123   7.219 -0.3376  0.0019 -0.5810
   47HTM   C23317680  11.446   6.135   7.202 -0.3533  0.1490 -0.6099
   47HTM   C23417681  11.509   6.016   7.182 -0.1869  0.1737 -0.2456
   47HTM    S2417682  11.393   5.878   7.182  0.0040  0.0111  0.1656
   48TAL   C23517683  11.510   6.273   7.202 -0.2810 -0.2400  0.2100
   48TAL   C23617684  11.659   6.284   7.180  0.2525  0.1818 -0.1055
   48TAL   C23717685  11.707   6.424   7.227 -0.4051  0.4496  0.2111
   48TAL   C23817686  11.857   6.456   7.229 -0.2520  0.4355 -0.4430
   48TAL   C23917687  11.942   6.353   7.303 -0.5164 -0.8980 -0.0129
   48TAL   C24017688  12.088   6.386   7.298 -0.5076 -0.1534 -0.3116
    1HTM     C117689   7.196   0.504   5.903 -0.0877 -0.4394  0.6625
    1HTM     C217690   7.244   0.533   5.779  0.0601 -0.3728  0.7353
    1HTM     C317691   7.144   0.529   5.675  0.1626 -0.2159  0.6297
    1HTM     C417692   7.020   0.495   5.720  0.0925 -0.1630  0.4760
    1HTM     S117693   7.020   0.467   5.898 -0.1096 -0.3083  0.4530
    2TAL     C517694   7.184   0.548   5.525  0.2734 -0.4528  0.2265
    2TAL     C617695   7.321   0.596   5.484 -0.2370  0.5788  0.6901
    2TAL     C717696   7.451   0.516   5.505 -0.6433 -0.1565 -0.8683
    2TAL     C817697   7.566   0.583   5.433  0.0997 -0.2213  0.0161
    2TAL     C917698   7.698   0.511   5.453  0.4230 -0.0041  0.1415
    2TAL    C1017699   7.806   0.577   5.367 -0.1055  0.4594 -0.6921
    3HTM    C1117700   6.889   0.475   5.651 -0.0915 -0.0903  0.2099
    3HTM    C1217701   6.864   0.448   5.520  0.0973  0.1452  0.1242
    3HTM    C1317702   6.724   0.432   5.489  0.1328  0.3069 -0.1264
    3HTM    C1417703   6.643   0.448   5.597 -0.0283  0.1946 -0.2317
    3HTM     S217704   6.737   0.484   5.747 -0.2393 -0.1264 -0.0213
    4TAL    C1517705   6.676   0.400   5.348  0.8994  0.0465 -0.4908
    4TAL    C1617706   6.770   0.341   5.254 -0.0268  0.0776  0.4700
    4TAL    C1717707   6.720   0.318   5.110 -0.1167 -0.5342 -0.1451
    4TAL    C1817708   6.623   0.203   5.086 -0.5326  0.3382  0.0391
    4TAL    C1917709   6.662   0.069   5.139  1.0323 -0.3625  0.4470
    4TAL    C2017710   6.559  -0.043   5.103  0.6364 -0.4731 -0.3734
    5HTM    C2117711   6.501   0.464   5.625 -0.1245 -0.3555 -0.2093
    5HTM    C2217712   6.442   0.481   5.746  0.0784 -0.1585 -0.1373
    5HTM    C2317713   6.298   0.488   5.741  0.0758 -0.0312  0.0765
    5HTM    C2417714   6.247   0.476   5.615 -0.1291 -0.1311  0.1675
    5HTM     S317715   6.378   0.456   5.492 -0.3361 -0.3958 -0.0110
    6TAL    C2517716   6.217   0.510   5.867 -0.0230  0.4626 -0.3842
    6TAL    C2617717   6.250   0.415   5.984 -0.2239 -0.1529  0.0162
    6TAL    C2717718   6.177   0.470   6.100 -0.0960 -0.3455 -0.4617
    6TAL    C2817719   6.209   0.410   6.233  0.1940 -0.2129  0.3501
    6TAL    C2917720   6.351   0.399   6.278 -0.0183  0.2492  0.6602
    6TAL    C3017721   6.367   0.321   6.413 -0.4747 -0.5541 -0.1203
    7HTM    C3117722   6.117   0.471   5.557  0.0336  0.3822 -0.0349
    7HTM    C3217723   6.004   0.413   5.607 -0.2239  1.0376  0.1538
    7HTM    C3317724   5.895   0.409   5.514 -0.1602  0.9830  0.0818
    7HTM    C3417725   5.924   0.463   5.392  0.1459  0.2858 -0.1621
    7HTM     S417726   6.093   0.525   5.386  0.3793 -0.3608 -0.3208
    8TAL    C3517727   5.765   0.345   5.561 -0.2537 -0.6079  0.1401
    8TAL    C3617728   5.711   0.223   5.490 -0.3704 -0.9180 -0.1156
    8TAL    C3717729   5.579   0.159   5.527 -0.5537 -0.5242 -0.6651
    8TAL    C3817730   5.548   0.024   5.468 -0.3773 -0.0316 -0.7300
    8TAL    C3917731   5.631  -0.094   5.503 -0.3560  0.2763  0.4433
    8TAL    C4017732   5.564  -0.226   5.473 -0.0810 -0.5215 -0.7856
    9HTM    C4117733   5.847   0.480   5.273 -0.1574 -0.7044 -0.3318
    9HTM    C4217734   5.905   0.502   5.151 -0.2067 -1.0194 -0.4129
    9HTM    C4317735   5.811   0.501   5.042 -0.3788 -0.4538 -0.2759
    9HTM    C4417736   5.682   0.478   5.080 -0.4608  0.2925 -0.0904
    9HTM     S517737   5.669   0.456   5.258 -0.3260  0.3392 -0.0741
   10TAL    C4517738   5.860   0.496   4.895 -0.3159 -0.0509 -0.0407
   10TAL    C4617739   6.012   0.489   4.870  0.0457  0.2454  0.1896
   10TAL    C4717740   6.064   0.438   4.732  0.2226 -0.2351 -0.2841
   10TAL    C4817741   6.218   0.445   4.717  0.2730  0.0132 -0.9386
   10TAL    C4917742   6.305   0.403   4.830  0.1682 -0.3428 -0.1964
   10TAL    C5017743   6.449   0.387   4.802 -0.3210  0.2235  0.5283
   11HTM    C5117744   5.566   0.469   4.998  0.4438  0.2241 -0.4837
   11HTM    C5217745   5.503   0.357   4.952  0.5395  0.0363 -0.1581
   11HTM    C5317746   5.388   0.384   4.871  0.2449 -0.3045  0.1421
   11HTM    C5417747   5.362   0.517   4.854 -0.0759 -0.3766  0.0460
   11HTM     S617748   5.483   0.619   4.941 -0.0300 -0.0169 -0.4353
   12TAL    C5517749   5.320   0.267   4.802  0.2629 -0.6161  0.0601
   12TAL    C5617750   5.231   0.173   4.877 -0.3798 -0.2300 -0.3045
   12TAL    C5717751   5.110   0.238   4.936  0.0412  0.8930  0.1670
   12TAL    C5817752   5.016   0.135   5.006 -0.0585 -0.0862  0.0665
   12TAL    C5917753   4.893   0.203   5.066 -0.0315 -0.0946  0.2599
   12TAL    C6017754   4.797   0.102   5.124 -0.1456  0.0518 -0.3236
   13HTM    C6117755   5.243   0.589   4.798  0.6405  0.0581  0.1129
   13HTM    C6217756   5.116   0.545   4.817  0.7029  0.0930  0.6449
   13HTM    C6317757   5.015   0.639   4.773  0.5512  0.0021  0.7985
   13HTM    C6417758   5.066   0.754   4.722  0.3734 -0.1022  0.3834
   13HTM     S717759   5.247   0.753   4.724  0.3836 -0.0935 -0.2383
   14TAL    C6517760   4.869   0.595   4.775 -0.6135 -0.0788 -0.0855
   14TAL    C6617761   4.828   0.439   4.781 -0.2382 -0.3783  0.9712
   14TAL    C6717762   4.884   0.345   4.672  0.2920  0.0282 -0.2726
   14TAL    C6817763   4.824   0.204   4.667 -0.0635 -0.3286 -0.0579
   14TAL    C6917764   4.682   0.191   4.606 -0.5484  1.5178  0.0559
   14TAL    C7017765   4.618   0.050   4.606  0.6094  0.2662  0.0546
   15HTM    C7117766   4.998   0.879   4.673 -0.0424  0.1130  0.1897
   15HTM    C7217767   5.054   1.003   4.667 -0.0412  0.1290  0.5274
   15HTM    C7317768   4.958   1.109   4.652 -0.0410  0.1718  0.8171
   15HTM    C7417769   4.828   1.066   4.646 -0.0416  0.1885  0.7002
   15HTM     S817770   4.818   0.886   4.659 -0.0426  0.1510  0.2113
   16TAL    C7517771   4.989   1.255   4.619 -0.0461 -0.5343  0.5341
   16TAL    C7617772   5.054   1.334   4.738  0.3101 -0.5460  0.0782
   16TAL    C7717773   5.092   1.482   4.699  0.0938  0.1234  0.1061
   16TAL    C7817774   5.242   1.514   4.700  0.4543 -0.6739 -0.9912
   16TAL    C7917775   5.323   1.418   4.616 -0.6694  0.1656  0.4714
   16TAL    C8017776   5.472   1.444   4.615 -0.1197  0.0035  0.1604
   17HTM    C8117777   4.708   1.139   4.615  0.1593  0.1103 -0.6092
   17HTM    C8217778   4.622   1.098   4.517  0.0472 -0.0917 -0.4289
   17HTM    C8317779   4.523   1.196   4.482 -0.3934 -0.4069 -0.0718
   17HTM    C8417780   4.532   1.312   4.553 -0.6173 -0.4451  0.0203
   17HTM     S917781   4.668   1.306   4.671 -0.2863 -0.0832 -0.3398
   18TAL    C8517782   4.426   1.174   4.365  0.6117  0.0923 -0.9655
   18TAL    C8617783   4.495   1.192   4.233 -0.1702  0.6185  0.2307
   18TAL    C8717784   4.412   1.131   4.121 -0.7117  0.1368 -0.2980
   18TAL    C8817785   4.395   0.976   4.121 -0.2272  0.3093  0.2574
   18TAL    C8917786   4.517   0.890   4.137 -0.0182 -0.1068  0.0703
   18TAL    C9017787   4.482   0.747   4.145 -0.6335 -1.1676  0.0721
   19HTM    C9117788   4.462   1.431   4.529 -0.1679 -0.2504  0.7434
   19HTM    C9217789   4.517   1.555   4.519  0.1588 -0.3847  0.8686
   19HTM    C9317790   4.427   1.655   4.468  0.5605 -0.1941  0.5164
   19HTM    C9417791   4.302   1.607   4.440  0.5397  0.0855  0.1233
   19HTM    S1017792   4.290   1.431   4.475  0.0073  0.1303  0.1673
   20TAL    C9517793   4.465   1.804   4.454  0.1573 -0.2434  0.4819
   20TAL    C9617794   4.587   1.819   4.356 -0.1060 -0.8918 -0.1062
   20TAL    C9717795   4.570   1.938   4.261  0.2621 -0.4709 -0.1284
   20TAL    C9817796   4.693   1.977   4.183  0.7180 -0.2085 -0.1665
   20TAL    C9917797   4.687   2.113   4.119  0.0824  0.4847  0.3605
   20TAL   C10017798   4.703   2.236   4.214 -0.2813  0.6209 -0.3378
   21HTM   C10117799   4.184   1.672   4.384  0.1652 -0.4888 -0.0976
   21HTM   C10217800   4.181   1.756   4.277  0.4604 -0.6248 -0.2155
   21HTM   C10317801   4.047   1.792   4.236  0.5846 -0.2508 -0.2923
   21HTM   C10417802   3.949   1.735   4.312  0.3844  0.1703 -0.2329
   21HTM    S1117803   4.018   1.631   4.442  0.0203  0.1269 -0.0743
   22TAL   C10517804   4.027   1.873   4.104 -0.2516  0.4823 -0.4466
   22TAL   C10617805   4.020   2.026   4.125 -0.0545  0.0665  0.5005
   22TAL   C10717806   3.974   2.110   4.007 -0.4162  0.2721 -0.4654
   22TAL   C10817807   3.826   2.127   4.018 -0.4720  0.1529 -0.5218
   22TAL   C10917808   3.766   2.170   3.888 -0.2004  0.3112  0.6716
   22TAL   C11017809   3.621   2.127   3.879 -0.0675  1.1569 -0.4116
   23HTM   C11117810   3.805   1.741   4.310  0.2995 -0.0400  0.1440
   23HTM   C11217811   3.737   1.849   4.264  0.5475  0.0144 -0.0937
   23HTM   C11317812   3.593   1.837   4.275  0.5097  0.2642 -0.2918
   23HTM   C11417813   3.553   1.719   4.331  0.2330  0.4003 -0.2054
   23HTM    S1217814   3.693   1.614   4.373 -0.0033  0.2220  0.1358
   24TAL   C11517815   3.491   1.932   4.208 -0.1777  0.5024 -0.4553
   24TAL   C11617816   3.503   2.083   4.235  0.0807  0.9699  0.3137
   24TAL   C11717817   3.376   2.163   4.225  0.5014 -0.6827 -0.2005
   24TAL   C11817818   3.276   2.146   4.340  0.3751 -0.2505  0.4046
   24TAL   C11917819   3.182   2.263   4.344 -0.0123 -0.1590 -0.6073
   24TAL   C12017820   3.086   2.258   4.464  0.4744  0.5364 -0.7534
   25HTM   C12117821   3.417   1.672   4.362 -0.1453  0.1831  0.3440
   25HTM   C12217822   3.306   1.738   4.405 -0.2935  0.1118  0.0761
   25HTM   C12317823   3.190   1.653   4.418 -0.2517  0.0216 -0.1285
   25HTM   C12417824   3.213   1.523   4.385 -0.0712  0.0241 -0.0166
   25HTM    S1317825   3.384   1.497   4.334  0.0603  0.1416  0.3588
   26TAL   C12517826   3.066   1.713   4.485 -0.7189 -0.2257  0.6401
   26TAL   C12617827   3.088   1.709   4.637  1.2199 -0.5817 -0.1495
   26TAL   C12717828   2.978   1.788   4.708  0.5750  0.4932 -0.7445
   26TAL   C12817829   3.019   1.824   4.852 -0.3405 -0.1664  0.2084
   26TAL   C12917830   2.917   1.905   4.937 -0.3135 -0.2555 -0.9579
   26TAL   C13017831   2.958   1.948   5.086 -0.2861 -0.0537  0.5872
   27HTM   C13117832   3.121   1.409   4.367 -0.0640 -0.0091 -0.6433
   27HTM   C13217833   3.141   1.305   4.282 -0.1521 -0.2542 -0.3667
   27HTM   C13317834   3.028   1.217   4.270 -0.1539 -0.3074  0.0255
   27HTM   C13417835   2.921   1.254   4.346 -0.0673 -0.1028  0.0481
   27HTM    S1417836   2.955   1.404   4.440  0.0239  0.1750 -0.4281
   28TAL   C13517837   3.036   1.098   4.176  0.2601 -0.2835  0.3095
   28TAL   C13617838   3.125   1.107   4.054  0.0573  0.5083 -0.3952
   28TAL   C13717839   3.143   0.970   3.983 -0.2122 -0.9582 -0.7943
   28TAL   C13817840   3.265   0.952   3.887  0.3612  0.2569 -0.0813
   28TAL   C13917841   3.291   1.069   3.793  0.6249  0.0468 -0.5628
   28TAL   C14017842   3.420   1.060   3.717  0.3007  0.5521  0.3621
   29HTM   C14117843   2.787   1.196   4.346  0.2625  0.1554  0.2437
   29HTM   C14217844   2.673   1.270   4.357  0.2897  0.1988  0.2303
   29HTM   C14317845   2.553   1.191   4.368  0.2419  0.2453  0.0424
   29HTM   C14417846   2.576   1.056   4.365  0.1785  0.2373 -0.0875
   29HTM    S1517847   2.751   1.019   4.349  0.1742  0.1699  0.0178
   30TAL   C14517848   2.419   1.255   4.389 -0.1103  0.6077 -0.2777
   30TAL   C14617849   2.373   1.357   4.284  0.2010 -0.3500  0.1109
   30TAL   C14717850   2.244   1.426   4.325 -0.3668  0.5546 -0.6668
   30TAL   C14817851   2.187   1.536   4.242 -0.0166  0.8206 -0.1193
   30TAL   C14917852   2.169   1.515   4.093  1.1726 -0.1538  0.0088
   30TAL   C15017853   2.179   1.643   4.015  0.2290  0.6120  0.4853
   31HTM   C15117854   2.491   0.935   4.358  0.0262 -0.3249 -0.2942
   31HTM   C15217855   2.357   0.934   4.332  0.0619 -0.1802 -0.4902
   31HTM   C15317856   2.303   0.802   4.312 -0.0820 -0.1340 -0.4094
   31HTM   C15417857   2.396   0.702   4.322 -0.2274 -0.2434 -0.1517
   31HTM    S1617858   2.560   0.769   4.359 -0.1939 -0.4147  0.0102
   32TAL   C15517859   2.156   0.778   4.312  0.0219  0.0868  0.3347
   32TAL   C15617860   2.088   0.762   4.174  0.3278  0.3694 -0.1900
   32TAL   C15717861   1.954   0.694   4.191  0.2594  0.0356 -0.2385
   32TAL   C15817862   1.887   0.641   4.066  0.0660  0.5722  0.5707
   32TAL   C15917863   1.868   0.736   3.954  0.7263 -0.5709  0.1556
   32TAL   C16017864   1.735   0.813   3.958 -0.1165 -0.9160  0.2091
   33HTM   C16117865   2.390   0.559   4.296  0.1121 -0.0003 -0.0207
   33HTM   C16217866   2.318   0.488   4.205  0.2695 -0.1980  0.0093
   33HTM   C16317867   2.353   0.348   4.200  0.4658 -0.1557  0.1819
   33HTM   C16417868   2.451   0.313   4.288  0.4577  0.0743  0.2838
   33HTM    S1717869   2.508   0.455   4.384  0.2001  0.2566  0.1686
   34TAL   C16517870   2.285   0.247   4.110 -0.4391  0.6398 -0.3146
   34TAL   C16617871   2.138   0.267   4.049 -0.2930  0.1290 -0.0781
   34TAL   C16717872   2.088   0.163   3.949  0.0061  0.0103  0.5950
   34TAL   C16817873   2.181   0.155   3.829  0.6699  0.6854  0.2452
   34TAL   C16917874   2.133   0.052   3.726  0.5480  0.2641  0.0399
   34TAL   C17017875   2.194   0.095   3.594 -0.3510  0.3130 -0.2076
   35HTM   C17117876   2.514   0.188   4.317 -0.2878 -0.3114 -0.1713
   35HTM   C17217877   2.469   0.073   4.374  0.1599 -0.3562  0.0951
   35HTM   C17317878   2.566  -0.034   4.374  0.5209 -0.0286  0.2015
   35HTM   C17417879   2.685   0.001   4.317  0.3488  0.2657  0.0160
   35HTM    S1817880   2.684   0.171   4.258 -0.2879  0.1514 -0.3094
   36TAL   C17517881   2.524  -0.166   4.436  0.1468  0.6330  0.1705
   36TAL   C17617882   2.422  -0.244   4.346 -0.3316 -0.0680 -0.2649
   36TAL   C17717883   2.367  -0.369   4.417 -0.5077 -0.2371 -0.6245
   36TAL   C17817884   2.253  -0.436   4.356 -0.3779 -0.3760 -0.5352
   36TAL   C17917885   2.177  -0.536   4.442 -0.4324 -0.3090 -0.1941
   36TAL   C18017886   2.043  -0.566   4.375  0.2782  0.2870  1.0797
   37HTM   C18117887   2.798  -0.086   4.290 -0.5575  0.0363 -0.5745
   37HTM   C18217888   2.796  -0.222   4.284 -0.4753  0.0334 -0.5550
   37HTM   C18317889   2.918  -0.280   4.234 -0.2179  0.0687  0.0188
   37HTM   C18417890   3.013  -0.188   4.202 -0.1040  0.0972  0.4371
   37HTM    S1917891   2.956  -0.020   4.233 -0.3145  0.0829  0.1356
   38TAL   C18517892   2.934  -0.432   4.230 -0.5760  0.4474  0.4435
   38TAL   C18617893   2.833  -0.536   4.278 -0.1718 -0.4527  0.2475
   38TAL   C18717894   2.786  -0.520   4.425 -0.0399  0.0637 -0.2619
   38TAL   C18817895   2.682  -0.620   4.469 -0.3485  0.7185  0.0712
   38TAL   C18917896   2.616  -0.569   4.595 -0.6014  0.2856 -0.5783
   38TAL   C19017897   2.512  -0.674   4.638  0.0228 -0.5744  0.0827
   39HTM   C19117898   3.143  -0.201   4.128  0.0756  0.2053  0.4552
   39HTM   C19217899   3.214  -0.316   4.113  0.2507  0.2890  0.6378
   39HTM   C19317900   3.327  -0.303   4.025  0.2261  0.3214  0.6106
   39HTM   C19417901   3.343  -0.178   3.974  0.0324  0.2628  0.4075
   39HTM    S2017902   3.214  -0.066   4.032 -0.1355  0.1610  0.2335
   40TAL   C19517903   3.419  -0.425   4.005  0.2940  0.3868 -0.3383
   40TAL   C19617904   3.358  -0.547   3.949  0.0095  0.4299 -0.2768
   40TAL   C19717905   3.473  -0.636   3.878 -0.4634  0.2646 -0.4704
   40TAL   C19817906   3.576  -0.699   3.964 -0.2740 -0.7525  0.0233
   40TAL   C19917907   3.676  -0.769   3.864 -0.0191 -0.7313 -0.4205
   40TAL   C20017908   3.801  -0.824   3.930 -0.1712  0.4147  0.2817
   41HTM   C20117909   3.429  -0.142   3.868  0.0222  0.2656  0.5014
   41HTM   C20217910   3.544  -0.204   3.829 -0.1132  0.0262  0.4772
   41HTM   C20317911   3.598  -0.152   3.706 -0.1911 -0.2866  0.3105
   41HTM   C20417912   3.525  -0.051   3.652 -0.1148 -0.2861  0.2079
   41HTM    S2117913   3.380  -0.013   3.752  0.0625  0.1125  0.3143
   42TAL   C20517914   3.715  -0.221   3.638 -0.2369  0.4346 -0.3554
   42TAL   C20617915   3.727  -0.378   3.652 -0.1490 -0.1503  0.6159
   42TAL   C20717916   3.868  -0.431   3.617  0.5923 -0.7541  0.2077
   42TAL   C20817917   3.878  -0.581   3.606  0.3212 -0.0386 -0.2663
   42TAL   C20917918   3.789  -0.644   3.499  0.3600  0.5993  0.4582
   42TAL   C21017919   3.807  -0.797   3.496  0.4328 -0.5404  0.0391
   43HTM   C21117920   3.546   0.026   3.530  0.4205  0.0965  0.3129
   43HTM   C21217921   3.635   0.008   3.428  0.6746  0.1165  0.5299
   43HTM   C21317922   3.641   0.118   3.336  0.6945  0.0125  0.4071
   43HTM   C21417923   3.557   0.220   3.367  0.4553 -0.0869  0.0965
   43HTM    S2217924   3.463   0.186   3.517  0.1846 -0.0566 -0.0662
   44TAL   C21517925   3.730   0.102   3.213 -0.1784 -0.4679 -0.1125
   44TAL   C21617926   3.736  -0.022   3.135 -0.4864  0.7390  0.6846
   44TAL   C21717927   3.766  -0.012   2.985 -0.2680  0.1101 -0.1431
   44TAL   C21817928   3.751  -0.151   2.916 -0.8877 -0.1756  0.2871
   44TAL   C21917929   3.625  -0.228   2.920  0.4385 -0.7052 -0.6822
   44TAL   C22017930   3.497  -0.160   2.863  0.4898  0.0735  0.1524
   45HTM   C22117931   3.517   0.338   3.295 -0.0753  0.3507  0.4235
   45HTM   C22217932   3.581   0.422   3.210  0.1401  0.6261  0.8527
   45HTM   C22317933   3.498   0.528   3.159  0.1868  0.6151  0.7528
   45HTM   C22417934   3.370   0.524   3.206  0.0070  0.3312  0.2475
   45HTM    S2317935   3.345   0.386   3.318 -0.2373  0.0537 -0.1446
   46TAL   C22517936   3.564   0.636   3.082 -0.5562  0.2731  0.2516
   46TAL   C22617937   3.593   0.608   2.933 -0.1299  0.3017  0.0915
   46TAL   C22717938   3.644   0.726   2.852  0.1924  0.1735 -0.2924
   46TAL   C22817939   3.551   0.844   2.820 -0.1622 -1.0099 -0.1157
   46TAL   C22917940   3.410   0.808   2.774  0.0740 -0.8345  0.2113
   46TAL   C23017941   3.343   0.914   2.698 -0.1318 -0.1063 -0.0468
   47HTM   C23117942   3.257   0.610   3.187  0.0979  0.1725 -0.2001
   47HTM   C23217943   3.129   0.579   3.221  0.2333  0.0665  0.2218
   47HTM   C23317944   3.034   0.682   3.190  0.0639  0.0466  0.6640
   47HTM   C23417945   3.089   0.792   3.132 -0.2010  0.1375  0.5794
   47HTM    S2417946   3.268   0.774   3.113 -0.2569  0.2561 -0.0704
   48TAL   C23517947   2.886   0.681   3.213  0.6849 -0.0527 -0.2065
   48TAL   C23617948   2.838   0.574   3.316 -0.6757 -0.2544  0.1808
   48TAL   C23717949   2.692   0.545   3.311  0.3924  0.3122 -0.2421
   48TAL   C23817950   2.669   0.460   3.435 -0.2194 -0.8944 -0.3902
   48TAL   C23917951   2.526   0.452   3.484 -1.0534  0.2667 -0.2519
   48TAL   C24017952   2.509   0.359   3.601 -0.9835  0.1493 -0.3639
    1HTM     C117953   4.784   6.134   1.110  0.1105 -0.0200  0.0357
    1HTM     C217954   4.699   6.044   1.052  0.2451 -0.3853  0.4011
    1HTM     C317955   4.561   6.065   1.085  0.2379 -0.5987  0.5018
    1HTM     C417956   4.539   6.170   1.169  0.0981 -0.3962  0.2131
    1HTM     S117957   4.694   6.253   1.213 -0.0369  0.0836 -0.2115
    2TAL     C517958   4.452   5.986   1.012 -0.4415 -0.7596  0.2381
    2TAL     C617959   4.372   5.874   1.076  0.0294 -0.2316 -0.9188
    2TAL     C717960   4.239   5.832   1.011  0.0620 -0.1485  0.3010
    2TAL     C817961   4.136   5.937   0.969  0.9786 -0.3005 -0.8266
    2TAL     C917962   3.994   5.882   0.940  0.5418  0.8770  0.1576
    2TAL    C1017963   3.889   5.989   0.929  0.0010 -0.2874  0.3167
    3HTM    C1117964   4.420   6.215   1.242  0.0816  0.0600 -0.4106
    3HTM    C1217965   4.420   6.259   1.371  0.2735  0.3541 -0.5085
    3HTM    C1317966   4.287   6.280   1.425  0.3514  0.4134 -0.3373
    3HTM    C1417967   4.188   6.251   1.336  0.2186  0.1646 -0.1089
    3HTM     S217968   4.253   6.196   1.178 -0.0165 -0.1662 -0.0921
    4TAL    C1517969   4.272   6.326   1.568 -0.0321  0.0916  0.3124
    4TAL    C1617970   4.384   6.374   1.652  0.2262 -0.4911 -0.2582
    4TAL    C1717971   4.436   6.514   1.612  0.4726 -0.1410  0.2952
    4TAL    C1817972   4.567   6.554   1.683 -0.3984 -0.1721 -0.4181
    4TAL    C1917973   4.699   6.480   1.654  0.0545  0.0608 -0.0544
    4TAL    C2017974   4.807   6.488   1.759 -0.4204  0.5006 -0.2693
    5HTM    C2117975   4.042   6.254   1.358 -0.0460 -0.4446  0.5519
    5HTM    C2217976   3.962   6.334   1.434  0.0541 -0.8659  1.1044
    5HTM    C2317977   3.822   6.304   1.422  0.0370 -0.7894  1.1148
    5HTM    C2417978   3.795   6.201   1.336 -0.0765 -0.3099  0.5703
    5HTM     S317979   3.946   6.134   1.264 -0.1709  0.0854 -0.0022
    6TAL    C2517980   3.714   6.382   1.491 -0.2873  0.4095 -0.5892
    6TAL    C2617981   3.678   6.507   1.416 -0.0779 -0.1152 -0.3201
    6TAL    C2717982   3.535   6.547   1.453  0.1014 -0.6251  0.1290
    6TAL    C2817983   3.515   6.660   1.349 -0.4478  0.3933  0.5321
    6TAL    C2917984   3.388   6.744   1.375 -0.4639 -0.5497  0.3006
    6TAL    C3017985   3.360   6.860   1.278 -0.0626  0.0811  0.4547
    7HTM    C3117986   3.673   6.138   1.297  0.0215  0.2206  0.2800
    7HTM    C3217987   3.603   6.129   1.180  0.1699  0.2155  0.1921
    7HTM    C3317988   3.484   6.049   1.189  0.2892  0.0124 -0.0197
    7HTM    C3417989   3.462   5.997   1.313  0.2316 -0.1379 -0.0934
    7HTM     S417990   3.592   6.044   1.429  0.0207 -0.0335  0.1006
    8TAL    C3517991   3.391   6.012   1.078  0.0167 -0.3082 -0.2777
    8TAL    C3617992   3.317   6.129   1.010  0.4363  0.6120 -0.2447
    8TAL    C3717993   3.223   6.215   1.092 -0.2306  0.2602 -0.6236
    8TAL    C3817994   3.118   6.158   1.189 -0.0151 -0.4230 -0.1878
    8TAL    C3917995   3.030   6.262   1.242 -0.0188 -0.2889 -0.3830
    8TAL    C4017996   2.918   6.307   1.148  0.2261 -0.5115  0.4939
    9HTM    C4117997   3.358   5.914   1.363  0.0570 -0.1589 -0.1161
    9HTM    C4217998   3.262   5.955   1.451  0.4631 -0.0603  0.2842
    9HTM    C4317999   3.175   5.849   1.496  0.5279  0.0319  0.6329
    9HTM    C4418000   3.204   5.727   1.442  0.1709  0.0041  0.4986
    9HTM     S518001   3.345   5.737   1.330 -0.2778 -0.1426 -0.0833
   10TAL    C4518002   3.082   5.880   1.617 -0.3644  0.0689  0.2493
   10TAL    C4618003   3.049   6.022   1.672 -0.0781 -0.3754  0.2595
   10TAL    C4718004   2.960   6.114   1.586 -0.7424 -0.4757  0.6132
   10TAL    C4818005   2.826   6.070   1.534 -0.3865  0.2822  0.1243
   10TAL    C4918006   2.756   6.172   1.446  0.2573 -0.8199  0.6087
   10TAL    C5018007   2.614   6.125   1.419  1.5846 -0.5780 -0.0038
   11HTM    C5118008   3.141   5.595   1.456  0.0275  0.0449 -0.3231
   11HTM    C5218009   3.012   5.569   1.421 -0.0068  0.1562 -0.2795
   11HTM    C5318010   2.976   5.430   1.432 -0.1252  0.1886 -0.2600
   11HTM    C5418011   3.078   5.350   1.475 -0.1812  0.1018 -0.2886
   11HTM     S618012   3.228   5.444   1.505 -0.0882 -0.0284 -0.3430
   12TAL    C5518013   2.834   5.392   1.400 -0.0665 -0.0482 -0.2093
   12TAL    C5618014   2.756   5.479   1.295 -0.4578  0.3718 -0.0877
   12TAL    C5718015   2.616   5.409   1.302  0.4327  0.0424 -0.2137
   12TAL    C5818016   2.528   5.496   1.215 -0.1039  0.7518 -0.1787
   12TAL    C5918017   2.377   5.478   1.231 -0.4613  0.2698 -0.1261
   12TAL    C6018018   2.290   5.571   1.151  0.2043  0.1623 -0.4979
   13HTM    C6118019   3.097   5.210   1.498 -0.0606  0.2385 -0.0297
   13HTM    C6218020   3.114   5.112   1.406 -0.1405  0.3796 -0.1955
   13HTM    C6318021   3.144   4.983   1.463 -0.2323  0.2618 -0.4117
   13HTM    C6418022   3.149   4.983   1.599 -0.2224  0.0309 -0.4109
   13HTM     S718023   3.117   5.148   1.666 -0.0954 -0.0561 -0.1348
   14TAL    C6518024   3.147   4.862   1.373  0.2102 -0.0449  0.0624
   14TAL    C6618025   3.259   4.849   1.275  0.0669  0.0805  0.2230
   14TAL    C6718026   3.397   4.842   1.332 -0.2712 -0.4257  0.5161
   14TAL    C6818027   3.500   4.833   1.220 -0.2946  0.5799  0.4381
   14TAL    C6918028   3.645   4.858   1.266  0.0472 -0.1193  0.0093
   14TAL    C7018029   3.730   4.889   1.135 -0.1712 -0.7888 -0.9856
   15HTM    C7118030   3.175   4.877   1.696  0.4469 -0.2502 -0.2302
   15HTM    C7218031   3.275   4.859   1.787  0.8637 -0.3214 -0.6992
   15HTM    C7318032   3.266   4.736   1.860  1.0418 -0.2549 -0.5646
   15HTM    C7418033   3.160   4.658   1.825  0.7612 -0.1328  0.0072
   15HTM     S818034   3.061   4.737   1.696  0.2459 -0.0920  0.4231
   16TAL    C7518035   3.362   4.694   1.977 -0.2005  0.0119  0.7355
   16TAL    C7618036   3.459   4.797   2.037  0.1219 -0.5729  0.0047
   16TAL    C7718037   3.561   4.749   2.144 -0.0076 -0.1567 -0.2437
   16TAL    C7818038   3.634   4.862   2.211 -0.0357 -0.4816  0.3329
   16TAL    C7918039   3.674   4.818   2.354  0.0406  0.4635  0.2633
   16TAL    C8018040   3.723   4.929   2.446 -0.9460  0.7526 -0.1129
   17HTM    C8118041   3.122   4.521   1.865  0.1687  0.2522  0.4631
   17HTM    C8218042   3.205   4.413   1.858  0.1649  0.2601  0.2729
   17HTM    C8318043   3.136   4.287   1.874  0.1568  0.2341  0.0249
   17HTM    C8418044   3.002   4.299   1.892  0.1543  0.2057  0.0260
   17HTM     S918045   2.950   4.472   1.891  0.1623  0.2102  0.3427
   18TAL    C8518046   3.203   4.150   1.863  0.1906 -0.2745 -0.2570
   18TAL    C8618047   3.317   4.119   1.768  0.0672 -0.1076  0.2481
   18TAL    C8718048   3.462   4.160   1.802 -0.0304  0.6523 -0.7046
   18TAL    C8818049   3.559   4.147   1.689  0.3533 -0.7316 -0.2991
   18TAL    C8918050   3.689   4.181   1.744 -0.3849  0.7761 -0.1809
   18TAL    C9018051   3.809   4.140   1.660 -0.3109 -0.4378  0.1154
   19HTM    C9118052   2.915   4.195   1.938 -0.1330  0.0203 -0.1026
   19HTM    C9218053   2.868   4.184   2.065 -0.0005 -0.0162 -0.0561
   19HTM    C9318054   2.787   4.066   2.088  0.0591 -0.0453  0.0058
   19HTM    C9418055   2.773   3.988   1.977 -0.0280 -0.0311  0.0065
   19HTM    S1018056   2.861   4.056   1.835 -0.1934  0.0207 -0.0716
   20TAL    C9518057   2.720   4.035   2.221  0.2472 -0.2038 -0.0427
   20TAL    C9618058   2.710   4.145   2.325 -0.8269 -0.1685 -0.0681
   20TAL    C9718059   2.634   4.113   2.457  0.5041  1.2029  0.1667
   20TAL    C9818060   2.494   4.048   2.452 -0.7070  0.1509 -0.6857
   20TAL    C9918061   2.374   4.114   2.386 -0.9193 -0.5861  0.0050
   20TAL   C10018062   2.252   4.037   2.411 -0.8447 -0.1384 -0.6698
   21HTM   C10118063   2.695   3.863   1.962 -0.5856  0.0190  0.0788
   21HTM   C10218064   2.590   3.847   1.876 -0.7257 -0.1786  0.2865
   21HTM   C10318065   2.524   3.719   1.888 -0.2688 -0.4230  0.2055
   21HTM   C10418066   2.579   3.638   1.983  0.2198 -0.4120 -0.0640
   21HTM    S1118067   2.719   3.717   2.065  0.1400 -0.0896 -0.2377
   22TAL   C10518068   2.408   3.693   1.795  0.5157  0.0594 -0.2971
   22TAL   C10618069   2.272   3.761   1.838 -0.7577 -0.3072  0.0565
   22TAL   C10718070   2.148   3.715   1.773  0.3937  0.5446  0.4147
   22TAL   C10818071   2.094   3.580   1.803  0.2408  0.1058 -0.4352
   22TAL   C10918072   1.983   3.537   1.714  0.2394  0.3882 -0.3592
   22TAL   C11018073   1.937   3.398   1.748 -0.0031  0.2052 -0.7909
   23HTM   C11118074   2.547   3.503   2.027  0.2649 -0.2220 -0.0894
   23HTM   C11218075   2.598   3.441   2.138  0.1843 -0.3761 -0.1398
   23HTM   C11318076   2.549   3.307   2.156  0.0883 -0.3636 -0.3043
   23HTM   C11418077   2.461   3.267   2.059  0.0959 -0.1996 -0.3792
   23HTM    S1218078   2.433   3.397   1.937  0.2259 -0.0473 -0.2471
   24TAL   C11518079   2.595   3.228   2.271 -0.0807 -0.2419 -0.1189
   24TAL   C11618080   2.505   3.250   2.396  0.0947 -0.1962 -0.0765
   24TAL   C11718081   2.548   3.191   2.529 -0.2927  0.0651  0.0252
   24TAL   C11818082   2.453   3.208   2.647  0.6816 -0.0219  0.0817
   24TAL   C11918083   2.423   3.355   2.682 -0.0651  0.4668 -0.4595
   24TAL   C12018084   2.283   3.373   2.747 -0.2740 -0.3957  0.3397
   25HTM   C12118085   2.376   3.145   2.039 -0.2133  0.1158  0.3758
   25HTM   C12218086   2.308   3.120   1.924  0.0721  0.3521  0.1537
   25HTM   C12318087   2.253   2.987   1.917  0.3980  0.2412 -0.4135
   25HTM   C12418088   2.279   2.911   2.027  0.3609 -0.0797 -0.6238
   25HTM    S1318089   2.376   3.003   2.149 -0.0919 -0.2683 -0.1180
   26TAL   C12518090   2.197   2.929   1.785 -0.1703 -0.9212  0.5736
   26TAL   C12618091   2.075   3.006   1.729 -0.3229 -0.0293  0.7061
   26TAL   C12718092   2.025   2.953   1.593 -0.1761 -0.1940  0.2509
   26TAL   C12818093   1.924   3.038   1.519  0.6371  0.2028  0.3317
   26TAL   C12918094   1.976   3.171   1.466  0.0952  0.3541 -0.3474
   26TAL   C13018095   1.876   3.238   1.371 -0.0406 -0.3312  0.2253
   27HTM   C13118096   2.242   2.776   2.064  0.3719  0.6599  0.2745
   27HTM   C13218097   2.128   2.709   2.029  0.0902  1.0082  0.5153
   27HTM   C13318098   2.131   2.569   2.062 -0.2291  0.9793  0.4194
   27HTM   C13418099   2.246   2.529   2.123 -0.1912  0.6092  0.1055
   27HTM    S1418100   2.362   2.666   2.143  0.2544  0.2656 -0.0948
   28TAL   C13518101   2.009   2.482   2.022 -0.2694  0.2258  0.3353
   28TAL   C13618102   2.028   2.450   1.874 -0.1012 -0.1887  0.4492
   28TAL   C13718103   1.927   2.348   1.813 -0.2630  0.2610  0.1024
   28TAL   C13818104   1.780   2.373   1.845 -0.2835  0.1526 -0.4579
   28TAL   C13918105   1.689   2.279   1.780  0.4107 -0.3359 -0.0193
   28TAL   C14018106   1.548   2.286   1.835 -0.4595  0.1360  0.6234
   29HTM   C14118107   2.301   2.403   2.162  0.1733  0.4263 -0.0938
   29HTM   C14218108   2.226   2.290   2.182 -0.0659  0.6367  0.2136
   29HTM   C14318109   2.305   2.174   2.212 -0.2999  0.5075  0.3277
   29HTM   C14418110   2.439   2.197   2.215 -0.2394  0.1987  0.1073
   29HTM    S1518111   2.477   2.370   2.180  0.1206  0.0459 -0.2645
   30TAL   C14518112   2.238   2.042   2.255 -0.2101 -0.3864 -0.7560
   30TAL   C14618113   2.161   1.964   2.149 -0.5652  0.2784 -0.4418
   30TAL   C14718114   2.233   1.956   2.012  0.6428 -0.4638 -0.2347
   30TAL   C14818115   2.144   1.922   1.895  0.2060  0.3735  0.0123
   30TAL   C14918116   2.019   2.009   1.874  0.5028  0.5156  0.5100
   30TAL   C15018117   1.924   1.973   1.763 -0.5196 -0.1161 -0.1787
   31HTM   C15118118   2.546   2.095   2.230  0.5578 -0.0464  0.5782
   31HTM   C15218119   2.672   2.129   2.269  0.6355 -0.4466  0.6839
   31HTM   C15318120   2.757   2.016   2.297  0.4125 -0.7249  0.2462
   31HTM   C15418121   2.695   1.896   2.279  0.1648 -0.5373 -0.1934
   31HTM    S1618122   2.524   1.916   2.226  0.1940  0.0100 -0.0877
   32TAL   C15518123   2.896   2.049   2.346 -0.5029  0.2506 -0.1706
   32TAL   C15618124   2.923   2.068   2.493  0.0652  0.5767  0.5375
   32TAL   C15718125   3.073   2.089   2.520 -0.1312 -0.5634  0.2688
   32TAL   C15818126   3.184   2.002   2.464  0.1141 -0.4611  0.4772
   32TAL   C15918127   3.165   1.850   2.463  0.3412  0.2520 -0.4839
   32TAL   C16018128   3.258   1.766   2.382  0.4067 -0.0449  0.0444
   33HTM   C16118129   2.745   1.762   2.294 -0.0613  0.3758 -0.5503
   33HTM   C16218130   2.809   1.695   2.394 -0.3248  0.6001 -0.2310
   33HTM   C16318131   2.840   1.558   2.362 -0.3270  0.4993  0.1944
   33HTM   C16418132   2.799   1.520   2.237 -0.0649  0.1980  0.1995
   33HTM    S1718133   2.719   1.656   2.150  0.2069  0.0169 -0.3368
   34TAL   C16518134   2.911   1.468   2.460  1.3144 -0.2133 -0.6751
   34TAL   C16618135   2.820   1.373   2.546 -0.3653 -0.4498  0.0904
   34TAL   C16718136   2.722   1.440   2.646  0.1897  0.0050 -0.3204
   34TAL   C16818137   2.635   1.351   2.734 -0.9571 -0.1963  0.1831
   34TAL   C16918138   2.561   1.441   2.829 -0.3635  0.7615  0.1613
   34TAL   C17018139   2.441   1.382   2.900 -0.2525  0.0335  0.9057
   35HTM   C17118140   2.834   1.394   2.166 -0.1127 -0.0558 -0.1793
   35HTM   C17218141   2.754   1.334   2.073  0.1481 -0.1397 -0.3508
   35HTM   C17318142   2.802   1.206   2.028  0.4319 -0.0424 -0.3244
   35HTM   C17418143   2.919   1.168   2.087  0.3874  0.1158 -0.1329
   35HTM    S1818144   2.977   1.292   2.205 -0.0193  0.1544  0.0306
   36TAL   C17518145   2.732   1.128   1.912  0.4575  0.5478 -0.5117
   36TAL   C17618146   2.589   1.175   1.864 -0.5019 -0.1752 -0.1729
   36TAL   C17718147   2.516   1.065   1.787  0.2072 -0.6124  0.2734
   36TAL   C17818148   2.382   1.124   1.734  0.5698  0.1492  0.1532
   36TAL   C17918149   2.306   1.032   1.637  0.4600 -0.5572 -0.3158
   36TAL   C18018150   2.168   1.095   1.606 -0.4410  0.2258 -0.2248
   37HTM   C18118151   3.010   1.052   2.075 -0.0661  0.5188  0.2589
   37HTM   C18218152   3.006   0.966   1.969 -0.3531  0.7776  0.0603
   37HTM   C18318153   3.104   0.861   1.975 -0.5347  0.5842 -0.3124
   37HTM   C18418154   3.182   0.866   2.087 -0.3861  0.1778 -0.3977
   37HTM    S1918155   3.139   1.005   2.192 -0.0025  0.0066 -0.0112
   38TAL   C18518156   3.099   0.756   1.866 -0.3640 -0.0396 -0.0254
   38TAL   C18618157   3.137   0.799   1.723 -0.4632 -0.0114  0.1379
   38TAL   C18718158   3.150   0.673   1.633 -0.1014  0.2077 -0.7799
   38TAL   C18818159   3.173   0.714   1.483  0.4718  0.1248 -0.6995
   38TAL   C18918160   3.292   0.803   1.440  0.1200 -0.2725 -0.3534
   38TAL   C19018161   3.300   0.831   1.289 -0.2941  0.1014 -0.4912
   39HTM   C19118162   3.276   0.765   2.138  0.2243  0.1189 -0.1000
   39HTM   C19218163   3.304   0.743   2.270  0.5864  0.4119 -0.1255
   39HTM   C19318164   3.392   0.631   2.292  0.6629  0.4734 -0.1194
   39HTM   C19418165   3.432   0.568   2.178  0.3595  0.2273 -0.0894
   39HTM    S2018166   3.360   0.646   2.032 -0.0499 -0.1039 -0.0661
   40TAL   C19518167   3.434   0.596   2.434 -0.2348 -0.7275 -0.4120
   40TAL   C19618168   3.559   0.666   2.480  0.1996  0.0129 -0.4887
   40TAL   C19718169   3.688   0.657   2.394 -0.2208 -0.1946  0.0986
   40TAL   C19818170   3.756   0.524   2.382 -0.3724  0.0598 -0.5170
   40TAL   C19918171   3.882   0.534   2.300  0.9262  0.0534  0.8330
   40TAL   C20018172   3.946   0.404   2.274  0.1314 -0.1907 -0.1463
   41HTM   C20118173   3.505   0.444   2.168  0.2903  0.3029 -0.2589
   41HTM   C20218174   3.601   0.407   2.078  0.0601  0.0031 -0.3837
   41HTM   C20318175   3.639   0.268   2.088 -0.1738 -0.0530 -0.2605
   41HTM   C20418176   3.573   0.200   2.185 -0.1217  0.2040 -0.0418
   41HTM    S2118177   3.455   0.306   2.272  0.2293  0.5394  0.0259
   42TAL   C20518178   3.751   0.219   1.998  0.1347 -0.2018  0.8435
   42TAL   C20618179   3.721   0.175   1.858  0.1660 -0.1952 -0.2177
   42TAL   C20718180   3.670   0.265   1.743  0.0104 -0.1241 -0.1777
   42TAL   C20818181   3.532   0.335   1.768  0.3414 -0.0408 -0.4405
   42TAL   C20918182   3.491   0.444   1.673  0.4673 -0.6034 -0.8137
   42TAL   C21018183   3.579   0.576   1.659  0.0558  0.5877  0.0008
   43HTM   C21118184   3.586   0.060   2.227 -0.2091  0.0123  0.1044
   43HTM   C21218185   3.521   0.003   2.333  0.2054 -0.2509  0.2214
   43HTM   C21318186   3.530  -0.140   2.336  0.3945 -0.2460 -0.0583
   43HTM   C21418187   3.603  -0.193   2.233  0.1243  0.0203 -0.3887
   43HTM    S2218188   3.665  -0.065   2.123 -0.3942  0.2885 -0.3719
   44TAL   C21518189   3.461  -0.205   2.448  0.5095 -0.1049  0.4880
   44TAL   C21618190   3.517  -0.330   2.524 -0.3864 -0.5319 -0.5780
   44TAL   C21718191   3.670  -0.327   2.531 -0.8966  0.5427 -0.5247
   44TAL   C21818192   3.724  -0.451   2.607  0.8383  0.2380  0.3924
   44TAL   C21918193   3.876  -0.449   2.603  0.3387  0.0889 -0.2460
   44TAL   C22018194   3.932  -0.536   2.712  0.5972 -0.0604  0.3193
   45HTM   C22118195   3.635  -0.326   2.191  0.1927 -0.3234 -0.2810
   45HTM   C22218196   3.555  -0.419   2.131  0.2861 -0.5922  0.0037
   45HTM   C22318197   3.625  -0.538   2.091  0.4212 -0.6166  0.3113
   45HTM   C22418198   3.758  -0.537   2.122  0.4310 -0.3663  0.2609
   45HTM    S2318199   3.806  -0.383   2.203  0.2688 -0.0780 -0.1822
   46TAL   C22518200   3.545  -0.637   2.013  0.0388  0.1214  0.1611
   46TAL   C22618201   3.570  -0.784   2.047 -0.5749  0.4476 -0.3452
   46TAL   C22718202   3.484  -0.880   1.970 -0.2871 -0.1698  0.2524
   46TAL   C22818203   3.504  -1.024   2.011 -0.2492 -0.3620 -0.0949
   46TAL   C22918204   3.473  -1.128   1.905 -0.2070  0.0480  0.3666
   46TAL   C23018205   3.547  -1.264   1.918  0.2744 -0.4033 -0.3871
   47HTM   C23118206   3.854  -0.640   2.104  0.0045 -0.4448 -0.1703
   47HTM   C23218207   3.903  -0.729   2.195  0.0323 -0.3290 -0.0719
   47HTM   C23318208   4.012  -0.808   2.144  0.1998 -0.2003  0.0857
   47HTM   C23418209   4.046  -0.780   2.015  0.2998 -0.2181  0.1071
   47HTM    S2418210   3.941  -0.650   1.947  0.1887 -0.4002 -0.0710
   48TAL   C23518211   4.078  -0.921   2.229  0.2654 -0.4637  0.2354
   48TAL   C23618212   4.175  -1.023   2.163  0.0315  0.5302 -0.0226
   48TAL   C23718213   4.256  -1.095   2.270  0.0612  0.0118  0.0620
   48TAL   C23818214   4.380  -1.156   2.215 -0.0308 -0.1563  0.0392
   48TAL   C23918215   4.446  -1.265   2.294  0.0754  0.0660 -0.2280
   48TAL   C24018216   4.538  -1.220   2.406  0.8557  0.2288  0.1519
    1HTM     C118217   1.600   3.123   1.639  0.2055  0.2771 -0.5856
    1HTM     C218218   1.598   3.258   1.656  0.0545  0.1955  0.0961
    1HTM     C318219   1.467   3.317   1.646 -0.0650  0.0576  0.7876
    1HTM     C418220   1.368   3.226   1.621 -0.0052  0.0342  0.6333
    1HTM     S118221   1.434   3.058   1.609  0.2083  0.1856 -0.4056
    2TAL     C518222   1.453   3.475   1.665 -0.3137  0.0640 -0.2480
    2TAL     C618223   1.578   3.565   1.633 -0.1034  0.1266 -0.4054
    2TAL     C718224   1.551   3.705   1.687 -0.4432 -0.4111 -0.5084
    2TAL     C818225   1.649   3.805   1.619  0.7473  0.2179  0.0213
    2TAL     C918226   1.614   3.942   1.679 -0.4393  0.2971  0.4298
    2TAL    C1018227   1.594   4.064   1.590 -0.1190  0.2429  0.4724
    3HTM    C1118228   1.229   3.242   1.587  0.0315 -0.1898 -0.1893
    3HTM    C1218229   1.135   3.153   1.629  0.2019 -0.3067 -0.0610
    3HTM    C1318230   1.000   3.193   1.603  0.1036 -0.3586  0.3532
    3HTM    C1418231   0.990   3.314   1.540 -0.1416 -0.2813  0.5406
    3HTM     S218232   1.152   3.386   1.510 -0.2685 -0.1355  0.2061
    4TAL    C1518233   0.888   3.092   1.637 -0.2212  0.5187 -0.4607
    4TAL    C1618234   0.913   2.990   1.748 -0.2520  0.5012 -0.1608
    4TAL    C1718235   0.839   2.862   1.743  0.3060 -0.1872 -0.5321
    4TAL    C1818236   0.900   2.738   1.815  0.2860  0.0716 -0.2351
    4TAL    C1918237   0.825   2.610   1.785  0.0428  0.1259  1.0510
    4TAL    C2018238   0.869   2.495   1.879 -0.9361  0.3417 -0.3062
    5HTM    C2118239   0.876   3.392   1.490  0.2922  0.0732 -0.1616
    5HTM    C2218240   0.877   3.522   1.451  0.1633  0.1568  0.1116
    5HTM    C2318241   0.750   3.569   1.401  0.1096  0.1431  0.2362
    5HTM    C2418242   0.652   3.474   1.403  0.1975  0.0493  0.0582
    5HTM     S318243   0.713   3.317   1.467  0.3563 -0.0298 -0.2835
    6TAL    C2518244   0.739   3.715   1.358  0.6116  0.0055 -0.7017
    6TAL    C2618245   0.800   3.761   1.228  0.4081  0.7797 -0.1054
    6TAL    C2718246   0.784   3.915   1.217 -0.0890 -0.2513 -0.3791
    6TAL    C2818247   0.840   3.989   1.092  0.6239 -0.1124  0.3395
    6TAL    C2918248   0.757   4.114   1.052 -0.2764  0.7911 -0.1751
    6TAL    C3018249   0.822   4.181   0.927 -0.4099  0.1535 -0.3817
    7HTM    C3118250   0.514   3.470   1.360  0.1636  0.0020 -0.2783
    7HTM    C3218251   0.441   3.355   1.345  0.0858  0.0986 -0.6422
    7HTM    C3318252   0.306   3.377   1.301  0.1622  0.3172 -0.7680
    7HTM    C3418253   0.275   3.509   1.282  0.2982  0.3871 -0.5001
    7HTM     S418254   0.416   3.615   1.320  0.3407  0.1808 -0.0645
    8TAL    C3518255   0.209   3.264   1.278 -0.3546  0.0484  0.9327
    8TAL    C3618256   0.242   3.118   1.325 -0.1242  0.1133 -0.3132
    8TAL    C3718257   0.160   2.993   1.276 -0.6505  0.1462  0.2427
    8TAL    C3818258   0.014   3.018   1.289 -0.1090 -0.3427 -0.4079
    8TAL    C3918259  -0.077   2.900   1.261 -0.8202  0.2630  0.2826
    8TAL    C4018260  -0.221   2.943   1.240 -0.0397  0.6441 -0.6502
    9HTM    C4118261   0.148   3.566   1.261 -0.2379 -0.0509 -0.0586
    9HTM    C4218262   0.062   3.553   1.155 -0.3651 -0.5059  0.0989
    9HTM    C4318263  -0.058   3.631   1.168 -0.5260 -0.7521  0.0861
    9HTM    C4418264  -0.065   3.703   1.283 -0.5215 -0.4847 -0.0813
    9HTM     S518265   0.082   3.679   1.385 -0.3121  0.1034 -0.2370
   10TAL    C4518266  -0.168   3.628   1.060  0.3141 -0.3624  0.2552
   10TAL    C4618267  -0.131   3.642   0.908  0.3558 -0.3898  0.0964
   10TAL    C4718268  -0.030   3.755   0.870 -0.2254  0.2378 -0.0572
   10TAL    C4818269   0.050   3.754   0.742 -0.5022 -0.3635  0.4663
   10TAL    C4918270   0.118   3.621   0.724 -0.1216  0.5992  0.0029
   10TAL    C5018271   0.254   3.615   0.799 -0.0447  0.1191  0.3350
   11HTM    C5118272  -0.162   3.798   1.329 -0.2770  0.1547 -0.0121
   11HTM    C5218273  -0.290   3.761   1.357 -0.2403  0.3960  0.4876
   11HTM    C5318274  -0.365   3.860   1.430  0.1917  0.5909  0.6654
   11HTM    C5418275  -0.293   3.972   1.459  0.4858  0.4980  0.3015
   11HTM     S618276  -0.125   3.962   1.394  0.2366  0.1548 -0.2988
   12TAL    C5518277  -0.506   3.822   1.475  0.4325 -0.2145 -0.0207
   12TAL    C5618278  -0.529   3.705   1.563  0.1001  1.4259 -0.2759
   12TAL    C5718279  -0.679   3.680   1.584  0.4660 -0.0133  0.6976
   12TAL    C5818280  -0.724   3.587   1.698  0.8110 -0.6021  0.7507
   12TAL    C5918281  -0.658   3.451   1.706 -0.1510  0.4327 -0.2322
   12TAL    C6018282  -0.743   3.339   1.765 -0.0184  0.4315 -0.0469
   13HTM    C6118283  -0.349   4.094   1.508 -0.3565 -0.1855  0.1089
   13HTM    C6218284  -0.347   4.139   1.637 -0.5136 -0.5283  0.2322
   13HTM    C6318285  -0.437   4.249   1.661 -0.3214 -0.3951  0.3423
   13HTM    C6418286  -0.507   4.288   1.551 -0.0162  0.0493  0.3031
   13HTM     S718287  -0.465   4.188   1.407  0.0504  0.3361  0.1224
   14TAL    C6518288  -0.448   4.316   1.792 -0.5726  0.2940  0.2264
   14TAL    C6618289  -0.328   4.311   1.889 -0.2393 -0.2784  0.3417
   14TAL    C6718290  -0.211   4.395   1.832 -0.3096  0.0508  0.5538
   14TAL    C6818291  -0.086   4.405   1.921 -0.0981 -0.0159 -0.5884
   14TAL    C6918292   0.024   4.497   1.874  0.4451 -0.3649  0.5522
   14TAL    C7018293  -0.012   4.647   1.864 -0.0937 -0.1692  0.3738
   15HTM    C7118294  -0.613   4.384   1.536  0.3066 -0.2508 -0.1960
   15HTM    C7218295  -0.735   4.366   1.477  0.3328 -0.5705 -0.1565
   15HTM    C7318296  -0.816   4.485   1.477 -0.0825 -0.8516  0.1054
   15HTM    C7418297  -0.756   4.593   1.535 -0.4252 -0.7465  0.2657
   15HTM     S818298  -0.591   4.553   1.595 -0.2490 -0.2801  0.0970
   16TAL    C7518299  -0.962   4.484   1.428  0.2556 -0.3502 -0.6073
   16TAL    C7618300  -0.973   4.479   1.274 -0.4111  0.7491  0.1994
   16TAL    C7718301  -1.122   4.479   1.223  0.0174 -0.3997  0.5133
   16TAL    C7818302  -1.207   4.362   1.277  0.7660  0.0485  0.9453
   16TAL    C7918303  -1.339   4.330   1.214  0.3219 -0.1199 -0.4165
   16TAL    C8018304  -1.461   4.414   1.250  0.3817  0.4137 -0.3253
   17HTM    C8118305  -0.804   4.728   1.559 -0.1733  0.0799  0.2002
   17HTM    C8218306  -0.778   4.802   1.671  0.2489  0.2837 -0.0333
   17HTM    C8318307  -0.851   4.927   1.676  0.4382  0.3963 -0.0935
   17HTM    C8418308  -0.932   4.947   1.568  0.1603  0.2789  0.0940
   17HTM     S918309  -0.923   4.810   1.452 -0.3667  0.0142  0.3634
   18TAL    C8518310  -0.836   5.004   1.803 -1.1572 -0.0197  0.4595
   18TAL    C8618311  -0.887   5.148   1.835  0.0358  0.5990 -0.0778
   18TAL    C8718312  -0.817   5.261   1.765 -0.4045  0.1683 -0.6790
   18TAL    C8818313  -0.870   5.404   1.795 -0.2658 -0.2185  0.5207
   18TAL    C8918314  -0.842   5.502   1.681 -0.3042 -0.1799 -0.6699
   18TAL    C9018315  -0.967   5.594   1.650 -0.1795 -0.3441  0.4825
   19HTM    C9118316  -1.014   5.062   1.539 -0.1172 -0.1649  0.0747
   19HTM    C9218317  -0.988   5.170   1.460 -0.0548 -0.3116 -0.1054
   19HTM    C9318318  -1.101   5.257   1.442  0.0410 -0.1891 -0.1162
   19HTM    C9418319  -1.213   5.216   1.507  0.0521  0.0505  0.0559
   19HTM    S1018320  -1.185   5.062   1.597 -0.0590  0.1411  0.2461
   20TAL    C9518321  -1.070   5.379   1.358  0.2921  0.5121  1.0589
   20TAL    C9618322  -1.155   5.502   1.349 -0.0188 -0.1512 -0.5305
   20TAL    C9718323  -1.073   5.612   1.270  0.2401 -0.3800 -1.0842
   20TAL    C9818324  -1.139   5.752   1.249 -0.5036 -0.9368  0.3226
   20TAL    C9918325  -1.074   5.837   1.148 -0.2905  0.3416  0.0911
   20TAL   C10018326  -1.143   5.970   1.125  0.0874 -0.4802 -0.1246
   21HTM   C10118327  -1.348   5.267   1.512  0.2965 -0.3261 -0.1258
   21HTM   C10218328  -1.393   5.389   1.553  0.2928 -0.5016  0.4038
   21HTM   C10318329  -1.530   5.415   1.517  0.1745 -0.5019  0.8511
   21HTM   C10418330  -1.589   5.313   1.449  0.0877 -0.3263  0.6626
   21HTM    S1118331  -1.476   5.175   1.425  0.1488 -0.1457 -0.1005
   22TAL   C10518332  -1.596   5.548   1.548  0.4153  0.9182  0.0054
   22TAL   C10618333  -1.527   5.676   1.493  0.1373  0.0803 -0.0706
   22TAL   C10718334  -1.435   5.750   1.583  0.0759  0.5068 -0.6430
   22TAL   C10818335  -1.371   5.867   1.510 -0.0062 -0.1725 -0.2604
   22TAL   C10918336  -1.284   5.947   1.603  0.0757  0.1520  0.5746
   22TAL   C11018337  -1.194   6.052   1.537 -0.1554  0.2410 -0.1030
   23HTM   C11118338  -1.718   5.300   1.379  0.2179 -0.2204 -0.0390
   23HTM   C11218339  -1.819   5.210   1.392  0.4911 -0.6061 -0.5715
   23HTM   C11318340  -1.934   5.240   1.312  0.4649 -0.5746 -0.5223
   23HTM   C11418341  -1.922   5.353   1.238  0.1714 -0.1648  0.0480
   23HTM    S1218342  -1.762   5.432   1.264 -0.0964  0.2157  0.5710
   24TAL   C11518343  -2.058   5.156   1.314 -0.1156 -0.4872  0.1622
   24TAL   C11618344  -2.182   5.228   1.363 -0.0113 -0.4961  0.3151
   24TAL   C11718345  -2.309   5.157   1.328  0.0373  0.3533 -0.3524
   24TAL   C11818346  -2.447   5.229   1.361 -0.1990 -0.0515  0.6451
   24TAL   C11918347  -2.455   5.363   1.291  0.2640  0.6483  0.2098
   24TAL   C12018348  -2.474   5.353   1.140 -0.5935  0.4123  0.2538
   25HTM   C12118349  -2.002   5.423   1.140  0.4339  0.0397  0.0189
   25HTM   C12218350  -2.106   5.509   1.154  0.6542  0.2465  0.4165
   25HTM   C12318351  -2.139   5.581   1.034  0.4687  0.4604  0.5929
   25HTM   C12418352  -2.058   5.549   0.928  0.1068  0.4169  0.3298
   25HTM    S1318353  -1.935   5.426   0.973 -0.0287  0.0996 -0.1651
   26TAL   C12518354  -2.252   5.677   1.015 -0.0896  0.2424 -0.1588
   26TAL   C12618355  -2.244   5.810   1.084  0.2485 -0.1163  0.2042
   26TAL   C12718356  -2.119   5.898   1.072 -0.5589 -0.7925  0.1155
   26TAL   C12818357  -2.079   5.950   0.931 -0.0753 -0.0379 -0.6889
   26TAL   C12918358  -1.950   6.025   0.928  0.3911  0.0549 -0.4216
   26TAL   C13018359  -1.942   6.146   1.012  0.6670 -0.0049  0.0874
   27HTM   C13118360  -2.031   5.607   0.802  0.2797 -0.1624  0.0628
   27HTM   C13218361  -2.096   5.582   0.684  0.3381 -0.4146  0.0829
   27HTM   C13318362  -2.027   5.631   0.568  0.2925 -0.4723  0.0314
   27HTM   C13418363  -1.909   5.692   0.596  0.1987 -0.2648 -0.0281
   27HTM    S1418364  -1.876   5.694   0.773  0.1609  0.0228 -0.0235
   28TAL   C13518365  -2.078   5.602   0.427  0.1883  0.6661 -0.3503
   28TAL   C13618366  -2.103   5.447   0.398  0.1279 -0.0420 -0.1478
   28TAL   C13718367  -1.980   5.351   0.400 -0.1444  0.3280  0.2951
   28TAL   C13818368  -2.018   5.204   0.378  0.5320 -0.1268  0.0281
   28TAL   C13918369  -1.911   5.121   0.323 -0.2498 -0.1941 -0.0067
   28TAL   C14018370  -1.969   4.978   0.298 -0.4042  0.0244 -0.2360
   29HTM   C14118371  -1.805   5.740   0.509  0.0205  0.0786  0.3102
   29HTM   C14218372  -1.805   5.821   0.399 -0.1125 -0.0532  0.2142
   29HTM   C14318373  -1.675   5.843   0.343 -0.1850 -0.1540  0.0049
   29HTM   C14418374  -1.574   5.780   0.410 -0.1073 -0.0989 -0.0586
   29HTM    S1518375  -1.637   5.686   0.551  0.0646  0.0860  0.1424
   30TAL   C14518376  -1.649   5.920   0.215  0.6809  0.3599 -0.1042
   30TAL   C14618377  -1.663   6.068   0.236  0.2873 -0.9320 -0.1415
   30TAL   C14718378  -1.599   6.151   0.136 -0.2037 -0.0897  0.1976
   30TAL   C14818379  -1.611   6.302   0.155  0.1411 -0.1256 -1.4152
   30TAL   C14918380  -1.531   6.389   0.071 -0.8415 -0.6477  0.1955
   30TAL   C15018381  -1.567   6.531   0.086 -0.7033 -0.4731  0.3359
   31HTM   C15118382  -1.430   5.773   0.385 -0.4517 -0.1446 -0.7390
   31HTM   C15218383  -1.350   5.700   0.468 -0.3946  0.1714 -0.5156
   31HTM   C15318384  -1.224   5.661   0.408 -0.1540  0.5021 -0.2312
   31HTM   C15418385  -1.209   5.704   0.280 -0.0287  0.4377 -0.2378
   31HTM    S1618386  -1.352   5.798   0.224 -0.2050 -0.0487 -0.6064
   32TAL   C15518387  -1.133   5.578   0.490 -0.3414 -0.9143 -0.7642
   32TAL   C15618388  -1.119   5.428   0.486 -1.0484 -0.2862 -0.0838
   32TAL   C15718389  -1.240   5.344   0.526 -0.2591  0.3669  0.0276
   32TAL   C15818390  -1.224   5.189   0.510  0.0325 -0.6194 -0.2181
   32TAL   C15918391  -1.327   5.090   0.570 -0.0308  0.4026  0.5356
   32TAL   C16018392  -1.319   4.947   0.521  0.0774  0.1325  0.5229
   33HTM   C16118393  -1.117   5.660   0.180 -0.3014 -0.0051  0.0664
   33HTM   C16218394  -1.021   5.733   0.114 -0.6402  0.1614 -0.2465
   33HTM   C16318395  -0.935   5.653   0.031 -0.6542  0.2847 -0.3779
   33HTM   C16418396  -0.965   5.520   0.032 -0.3268  0.2121 -0.1653
   33HTM    S1718397  -1.105   5.485   0.140  0.0281 -0.0187  0.2205
   34TAL   C16518398  -0.828   5.718  -0.062  0.2943 -0.0434 -0.1245
   34TAL   C16618399  -0.783   5.865  -0.036 -0.4102  0.2616  0.1728
   34TAL   C16718400  -0.683   5.927  -0.141  0.5499 -0.4260  0.1428
   34TAL   C16818401  -0.562   5.842  -0.179  0.6386 -0.3495  0.4446
   34TAL   C16918402  -0.489   5.886  -0.306 -0.0453 -0.3820  0.2260
   34TAL   C17018403  -0.360   5.808  -0.338  0.0438  0.0047  0.2776
   35HTM   C17118404  -0.900   5.409  -0.037  0.1466  0.0559  0.1067
   35HTM   C17218405  -0.773   5.399  -0.086  0.1459  0.0806  0.0987
   35HTM   C17318406  -0.752   5.283  -0.169  0.1655  0.0806  0.1030
   35HTM   C17418407  -0.862   5.204  -0.183  0.1802  0.0563  0.1146
   35HTM    S1818408  -1.003   5.271  -0.091  0.1719  0.0309  0.1214
   36TAL   C17518409  -0.620   5.254  -0.233 -0.4404  0.7255 -0.1728
   36TAL   C17618410  -0.512   5.360  -0.223 -0.4934  0.1050 -0.2443
   36TAL   C17718411  -0.404   5.356  -0.323 -0.0848 -0.1894 -0.1710
   36TAL   C17818412  -0.299   5.466  -0.288  0.1218 -0.0046  0.0159
   36TAL   C17918413  -0.179   5.459  -0.387 -0.0788 -0.7074 -0.3723
   36TAL   C18018414  -0.077   5.579  -0.366  0.8853 -0.3753  0.1544
   37HTM   C18118415  -0.890   5.098  -0.278 -0.1143  0.1984  0.1082
   37HTM   C18218416  -0.869   5.087  -0.412 -0.2317  0.3769  0.0749
   37HTM   C18318417  -0.937   4.975  -0.472 -0.2704  0.4473 -0.0119
   37HTM   C18418418  -1.010   4.901  -0.384 -0.1832  0.3225 -0.0447
   37HTM    S1918419  -0.998   4.967  -0.217 -0.0442  0.1047  0.0328
   38TAL   C18518420  -0.920   4.952  -0.622 -0.1270 -0.3059 -0.0425
   38TAL   C18618421  -0.943   5.073  -0.715 -0.4830  0.6539  0.0409
   38TAL   C18718422  -1.053   5.179  -0.689  0.2043  0.1046 -0.1073
   38TAL   C18818423  -1.131   5.227  -0.816 -0.2516 -0.0503  0.8715
   38TAL   C18918424  -1.174   5.128  -0.925  0.1624  0.3338  0.2463
   38TAL   C19018425  -1.270   5.206  -1.005 -0.6660 -0.2259  0.1703
   39HTM   C19118426  -1.102   4.790  -0.406  0.5008  0.0625 -0.2757
   39HTM   C19218427  -1.222   4.773  -0.345  0.5081  0.4184 -0.1583
   39HTM   C19318428  -1.285   4.647  -0.375  0.1640  0.5507  0.0010
   39HTM   C19418429  -1.212   4.568  -0.459 -0.1059  0.2957  0.0042
   39HTM    S2018430  -1.057   4.647  -0.507  0.0550 -0.1347 -0.1930
   40TAL   C19518431  -1.424   4.605  -0.314  0.4503 -0.4647  0.1962
   40TAL   C19618432  -1.552   4.700  -0.325 -0.2726  0.0275 -0.5275
   40TAL   C19718433  -1.546   4.833  -0.248  0.2200  0.7873  0.2695
   40TAL   C19818434  -1.515   4.820  -0.098  0.2238  0.5193  0.6551
   40TAL   C19918435  -1.638   4.818  -0.013 -0.5823  0.2291  1.0756
   40TAL   C20018436  -1.601   4.781   0.123  0.3956 -0.3099 -0.7653
   41HTM   C20118437  -1.239   4.441  -0.523 -0.3073  0.0741  0.2946
   41HTM   C20218438  -1.180   4.384  -0.632 -0.4146  0.2444  0.1469
   41HTM   C20318439  -1.236   4.257  -0.668 -0.3686  0.2441  0.0777
   41HTM   C20418440  -1.338   4.216  -0.587 -0.2264  0.0733  0.1726
   41HTM    S2118441  -1.371   4.337  -0.457 -0.1389 -0.1012  0.3586
   42TAL   C20518442  -1.182   4.185  -0.783  0.1306  0.0259  0.7324
   42TAL   C20618443  -1.056   4.096  -0.747  0.4867  0.2565 -0.1976
   42TAL   C20718444  -0.974   4.085  -0.874  0.3895  0.5811  0.5160
   42TAL   C20818445  -0.838   4.018  -0.866  0.1097 -0.0415  0.0331
   42TAL   C20918446  -0.758   3.985  -0.990  0.1255  0.1545  0.0494
   42TAL   C21018447  -0.816   3.872  -1.085 -0.4779 -0.1483 -0.4894
   43HTM   C21118448  -1.421   4.099  -0.597  0.4119  0.0856 -0.0051
   43HTM   C21218449  -1.387   3.968  -0.617  0.1564  0.0693 -0.3572
   43HTM   C21318450  -1.498   3.877  -0.613 -0.0186  0.2739 -0.5746
   43HTM   C21418451  -1.618   3.938  -0.591  0.1037  0.4464 -0.3878
   43HTM    S2218452  -1.599   4.117  -0.572  0.4517  0.3629  0.0804
   44TAL   C21518453  -1.481   3.728  -0.615 -0.1764 -0.1005 -0.0449
   44TAL   C21618454  -1.445   3.656  -0.749  0.9404 -0.5121 -0.0389
   44TAL   C21718455  -1.418   3.508  -0.747 -0.3234  0.2845  0.4907
   44TAL   C21818456  -1.369   3.461  -0.882 -0.4088  0.0456  0.5744
   44TAL   C21918457  -1.320   3.314  -0.906  0.4093  0.4822 -0.2053
   44TAL   C22018458  -1.294   3.281  -1.051  0.0703  0.4132 -0.1265
   45HTM   C22118459  -1.759   3.897  -0.594 -0.0133  0.0963 -0.1340
   45HTM   C22218460  -1.868   3.978  -0.605 -0.0257  0.0551 -0.3190
   45HTM   C22318461  -1.989   3.908  -0.636 -0.0236 -0.0393 -0.1144
   45HTM   C22418462  -1.973   3.773  -0.649 -0.0097 -0.0701  0.2262
   45HTM    S2318463  -1.802   3.724  -0.622  0.0019  0.0182  0.3161
   46TAL   C22518464  -2.118   3.990  -0.654 -0.0879 -0.1689  0.2401
   46TAL   C22618465  -2.188   4.058  -0.542  0.3568  0.4325 -0.2883
   46TAL   C22718466  -2.240   3.972  -0.425  0.7938  0.2535 -0.0808
   46TAL   C22818467  -2.327   3.848  -0.454 -0.0493  0.2083  0.3871
   46TAL   C22918468  -2.346   3.777  -0.323  0.2361  0.0001 -0.1813
   46TAL   C23018469  -2.433   3.654  -0.326 -0.3651 -0.1754  0.1391
   47HTM   C23118470  -2.069   3.664  -0.672  0.2414  0.1152  0.1126
   47HTM   C23218471  -2.109   3.561  -0.591  0.5960 -0.0408  0.0892
   47HTM   C23318472  -2.218   3.484  -0.644  0.7288 -0.2836  0.1650
   47HTM   C23418473  -2.263   3.528  -0.765  0.4758 -0.3129  0.2458
   47HTM    S2418474  -2.169   3.671  -0.822  0.0460 -0.0339  0.2340
   48TAL   C23518475  -2.266   3.359  -0.568 -0.2258  0.3581 -0.0780
   48TAL   C23618476  -2.359   3.265  -0.648 -0.4174 -0.0162  0.4691
   48TAL   C23718477  -2.382   3.122  -0.592 -0.6774  0.2392  0.5343
   48TAL   C23818478  -2.258   3.038  -0.554  0.4248 -0.0693  0.1226
   48TAL   C23918479  -2.308   2.918  -0.470 -0.1063 -0.3155 -0.2538
   48TAL   C24018480  -2.210   2.837  -0.391  0.6110  0.8629 -0.3169
    1HTM     C118481   4.412   6.304   8.804 -0.0860 -0.3641  0.3982
    1HTM     C218482   4.496   6.411   8.794 -0.5529  0.0854  1.1940
    1HTM     C318483   4.618   6.396   8.869 -0.6242  0.1934  1.3313
    1HTM     C418484   4.628   6.278   8.936 -0.2114 -0.1743  0.6406
    1HTM     S118485   4.482   6.175   8.910  0.3033 -0.6888 -0.2443
    2TAL     C518486   4.727   6.507   8.862  0.2464  0.2391 -0.2101
    2TAL     C618487   4.671   6.645   8.904  0.6363 -0.3259 -0.0511
    2TAL     C718488   4.775   6.751   8.878 -0.5193 -0.0574  0.6415
    2TAL     C818489   4.716   6.887   8.857  1.0665  0.1206 -0.6177
    2TAL     C918490   4.815   6.996   8.823  0.3597 -0.6666  0.5327
    2TAL    C1018491   4.855   6.995   8.680  0.1062 -0.1967  0.4848
    3HTM    C1118492   4.725   6.228   9.030  0.0940 -0.1493  0.1270
    3HTM    C1218493   4.710   6.110   9.096 -0.2146  0.0780  0.4728
    3HTM    C1318494   4.822   6.077   9.180 -0.3223  0.0539  0.6068
    3HTM    C1418495   4.922   6.170   9.178 -0.0955 -0.1917  0.3632
    3HTM     S218496   4.882   6.308   9.070  0.2743 -0.4130 -0.0577
    4TAL    C1518497   4.831   5.940   9.257  0.0345  0.5285 -0.1219
    4TAL    C1618498   4.737   5.826   9.213  0.3958 -0.2899 -0.3864
    4TAL    C1718499   4.729   5.794   9.061  0.2918 -0.5298  0.2215
    4TAL    C1818500   4.658   5.666   9.022  0.0908  0.3561  0.3555
    4TAL    C1918501   4.745   5.540   9.034  0.4312  0.1122 -0.6807
    4TAL    C2018502   4.840   5.504   8.922 -0.1164  0.0939 -0.1124
    5HTM    C2118503   5.048   6.158   9.250  0.1546 -0.0330 -0.0820
    5HTM    C2218504   5.075   6.093   9.366  0.4840 -0.7908 -0.5743
    5HTM    C2318505   5.205   6.123   9.421  0.6218 -1.1134 -0.7242
    5HTM    C2418506   5.277   6.211   9.346  0.3976 -0.6014 -0.3460
    5HTM     S318507   5.186   6.263   9.199 -0.0082  0.3349  0.2331
    6TAL    C2518508   5.250   6.075   9.561  0.3221  0.3044 -0.5763
    6TAL    C2618509   5.164   5.970   9.632 -0.5095 -0.3379 -0.0621
    6TAL    C2718510   5.171   5.831   9.575 -0.7201 -0.7233 -0.1514
    6TAL    C2818511   5.094   5.727   9.655 -0.1048  0.0893 -0.4039
    6TAL    C2918512   5.124   5.582   9.623 -0.1714  0.2544 -0.0538
    6TAL    C3018513   5.031   5.497   9.700  0.5027  0.2495 -0.0841
    7HTM    C3118514   5.408   6.274   9.362  0.2479 -0.7261 -0.4878
    7HTM    C3218515   5.449   6.395   9.315  0.0176 -0.6709 -0.5496
    7HTM    C3318516   5.586   6.425   9.345 -0.1173 -0.2749 -0.3224
    7HTM    C3418517   5.650   6.327   9.415  0.0101 -0.0282 -0.0875
    7HTM     S418518   5.540   6.187   9.448  0.3127 -0.2784 -0.1352
    8TAL    C3518519   5.655   6.551   9.302  0.2747  0.0813  0.4007
    8TAL    C3618520   5.616   6.620   9.175  0.4888 -0.2611  0.2711
    8TAL    C3718521   5.656   6.768   9.163  0.0722 -0.1832  0.1824
    8TAL    C3818522   5.606   6.822   9.028 -0.5022 -0.0096 -0.1306
    8TAL    C3918523   5.649   6.964   9.020  0.1561  0.3203  0.0759
    8TAL    C4018524   5.545   7.038   8.937  0.4853  0.0168 -0.4045
    9HTM    C4118525   5.791   6.310   9.445 -0.0215  0.0553 -0.0495
    9HTM    C4218526   5.846   6.185   9.438 -0.0050  0.0508  0.1760
    9HTM    C4318527   5.988   6.183   9.463 -0.0920  0.0503  0.6742
    9HTM    C4418528   6.041   6.306   9.489 -0.1748  0.0539  0.8286
    9HTM     S518529   5.915   6.435   9.483 -0.1490  0.0590  0.3531
   10TAL    C4518530   6.057   6.043   9.445 -0.2729 -0.2919  0.0118
   10TAL    C4618531   6.013   5.930   9.542 -1.1198 -0.0569  0.3214
   10TAL    C4718532   6.067   5.795   9.506  0.3366  0.1985  0.3986
   10TAL    C4818533   6.070   5.700   9.620  0.2738  0.1177 -0.7421
   10TAL    C4918534   6.169   5.585   9.581  0.0209  0.5188  0.4474
   10TAL    C5018535   6.189   5.483   9.695  0.0888 -0.5153  0.5414
   11HTM    C5118536   6.181   6.336   9.493  0.2944 -0.2157 -0.4169
   11HTM    C5218537   6.238   6.456   9.465  0.2933 -0.3295 -0.9213
   11HTM    C5318538   6.381   6.459   9.483  0.2887 -0.2434 -0.8998
   11HTM    C5418539   6.433   6.340   9.525  0.2871 -0.0637 -0.3790
   11HTM     S618540   6.304   6.215   9.545  0.2901  0.0112  0.1286
   12TAL    C5518541   6.462   6.587   9.452  0.3231  0.0119  0.7478
   12TAL    C5618542   6.404   6.694   9.349 -0.5018 -0.2504 -0.2688
   12TAL    C5718543   6.492   6.818   9.361 -0.7484 -0.0799  0.5151
   12TAL    C5818544   6.448   6.932   9.266 -0.4555  0.6619 -0.1017
   12TAL    C5918545   6.545   7.044   9.237  0.3891 -0.1359  0.5013
   12TAL    C6018546   6.482   7.154   9.141 -0.2572 -0.1927 -0.1335
   13HTM    C6118547   6.568   6.290   9.540  0.1320 -0.1556  0.4989
   13HTM    C6218548   6.605   6.160   9.522  0.3080 -0.0818  0.3231
   13HTM    C6318549   6.746   6.137   9.536  0.3927  0.1605 -0.1092
   13HTM    C6418550   6.817   6.249   9.565  0.2816  0.2714 -0.2632
   13HTM     S718551   6.711   6.394   9.577  0.0591  0.0772  0.1291
   14TAL    C6518552   6.800   5.996   9.523  0.0277 -0.1153  0.6324
   14TAL    C6618553   6.840   5.930   9.386 -0.2396  0.5331 -0.3912
   14TAL    C6718554   6.922   5.999   9.276 -0.0120  0.1789 -0.6907
   14TAL    C6818555   6.864   6.125   9.206 -0.1592 -0.2457  0.0845
   14TAL    C6918556   6.967   6.214   9.137  0.2076 -0.5781 -0.0604
   14TAL    C7018557   7.013   6.330   9.225  0.2776 -0.0901  0.0982
   15HTM    C7118558   6.959   6.264   9.591  0.1490 -0.1065 -0.3587
   15HTM    C7218559   7.027   6.380   9.613 -0.0293  0.0374 -0.5641
   15HTM    C7318560   7.169   6.363   9.626 -0.0129  0.2658 -0.4367
   15HTM    C7418561   7.210   6.234   9.613  0.1780  0.2960 -0.1341
   15HTM     S818562   7.071   6.122   9.584  0.3535  0.0368  0.0146
   16TAL    C7518563   7.262   6.484   9.653  0.9405  0.6653 -0.3078
   16TAL    C7618564   7.389   6.463   9.736  0.6137 -0.2971  0.5122
   16TAL    C7718565   7.521   6.529   9.697 -0.4314 -0.1764  0.1433
   16TAL    C7818566   7.639   6.484   9.785 -0.6077 -0.4169 -0.1656
   16TAL    C7918567   7.661   6.338   9.801  0.6136  0.1727 -0.4488
   16TAL    C8018568   7.784   6.305   9.872  0.6295  0.2224 -0.4144
   17HTM    C8118569   7.343   6.174   9.616 -0.1773 -0.3539 -0.0037
   17HTM    C8218570   7.447   6.191   9.530 -0.2637 -0.4878 -0.1349
   17HTM    C8318571   7.559   6.104   9.556 -0.2596 -0.4857 -0.1463
   17HTM    C8418572   7.540   6.021   9.663 -0.1697 -0.3499 -0.0238
   17HTM     S918573   7.378   6.046   9.738 -0.0828 -0.2138  0.1166
   18TAL    C8518574   7.685   6.110   9.470 -0.7958  0.0142 -0.4223
   18TAL    C8618575   7.704   6.226   9.376 -0.0782  0.1189  0.3685
   18TAL    C8718576   7.745   6.361   9.438  0.2007 -0.5992 -0.0798
   18TAL    C8818577   7.694   6.472   9.343 -0.4271  0.5623  0.0648
   18TAL    C8918578   7.749   6.602   9.373  0.3225  0.2343  0.7962
   18TAL    C9018579   7.712   6.709   9.271  0.9375 -0.3208  0.2044
   19HTM    C9118580   7.632   5.931   9.730  0.5880  0.1135 -0.2154
   19HTM    C9218581   7.769   5.928   9.734  0.5839 -0.6506 -0.3669
   19HTM    C9318582   7.823   5.809   9.793 -0.0217 -0.9131 -0.3316
   19HTM    C9418583   7.728   5.720   9.834 -0.4796 -0.3488 -0.1533
   19HTM    S1018584   7.562   5.781   9.801 -0.1789  0.5647 -0.0149
   20TAL    C9518585   7.970   5.792   9.809 -0.1953 -0.0863 -0.3055
   20TAL    C9618586   8.067   5.887   9.731 -0.2981  0.2412  0.1406
   20TAL    C9718587   8.078   5.857   9.580 -0.0523  0.4277 -0.1076
   20TAL    C9818588   8.147   5.971   9.512  0.1281  0.3320  0.2475
   20TAL    C9918589   8.140   5.958   9.365  0.3937 -0.4576  0.3839
   20TAL   C10018590   8.226   6.055   9.291  0.2035  0.5982  0.4564
   21HTM   C10118591   7.740   5.597   9.908 -0.1703  0.2695  0.3869
   21HTM   C10218592   7.633   5.539   9.968 -0.2289  0.0575  0.0833
   21HTM   C10318593   7.654   5.402  10.006 -0.2804 -0.0863 -0.4119
   21HTM   C10418594   7.778   5.355   9.973 -0.2606  0.0167 -0.4860
   21HTM    S1118595   7.878   5.481   9.893 -0.1750  0.3050  0.0683
   22TAL   C10518596   7.543   5.316  10.060 -0.1649  0.1896 -0.2462
   22TAL   C10618597   7.413   5.311   9.980 -0.2035 -0.4771  0.0515
   22TAL   C10718598   7.434   5.273   9.834  0.2972  0.2102  0.2184
   22TAL   C10818599   7.304   5.285   9.749  0.6939 -0.4297  0.8108
   22TAL   C10918600   7.306   5.217   9.613  0.5021  0.3423 -0.5520
   22TAL   C11018601   7.321   5.071   9.622 -0.3113 -0.0392 -0.1813
   23HTM   C11118602   7.841   5.226   9.996 -0.2972 -0.4251  0.1539
   23HTM   C11218603   7.829   5.139  10.100 -0.2952 -0.6368 -0.0228
   23HTM   C11318604   7.897   5.013  10.079 -0.2000 -0.5503 -0.2329
   23HTM   C11418605   7.960   5.005   9.958 -0.1299 -0.2726 -0.2162
   23HTM    S1218606   7.939   5.156   9.862 -0.1789 -0.0973  0.0681
   24TAL   C11518607   7.882   4.896  10.165 -0.0992  0.2843  0.2239
   24TAL   C11618608   7.746   4.855  10.220 -0.4885 -0.3761  0.0229
   24TAL   C11718609   7.637   4.831  10.115 -0.2374 -0.9788  0.2423
   24TAL   C11818610   7.679   4.746  10.000  0.0198  0.2105  0.0589
   24TAL   C11918611   7.587   4.758   9.884 -0.1550 -0.2851 -0.3685
   24TAL   C12018612   7.629   4.689   9.762 -0.3849  0.5662  0.6330
   25HTM   C12118613   8.028   4.886   9.902  0.0016  0.1281 -0.0788
   25HTM   C12218614   7.993   4.810   9.794  0.3386  0.5322 -0.4756
   25HTM   C12318615   8.091   4.709   9.761  0.4001  0.5965 -0.4903
   25HTM   C12418616   8.200   4.708   9.843  0.1095  0.2416 -0.1046
   25HTM    S1318617   8.188   4.836   9.970 -0.2667 -0.2048  0.3102
   26TAL   C12518618   8.051   4.619   9.649 -0.2160 -0.1942  0.5235
   26TAL   C12618619   7.941   4.509   9.662  0.1670  0.2421 -0.2097
   26TAL   C12718620   7.939   4.429   9.796 -0.4781  0.0973 -0.0367
   26TAL   C12818621   7.805   4.371   9.825 -0.4773 -0.0859  0.1346
   26TAL   C12918622   7.761   4.255   9.733  0.5353  0.1584  0.3603
   26TAL   C13018623   7.628   4.187   9.763  1.3215 -0.5815  0.7144
   27HTM   C13118624   8.323   4.632   9.840  0.0132 -0.1495 -0.0838
   27HTM   C13218625   8.446   4.679   9.874  0.0219 -0.1836 -0.0680
   27HTM   C13318626   8.555   4.593   9.834 -0.0019 -0.2570  0.0269
   27HTM   C13418627   8.514   4.479   9.770 -0.0290 -0.2789  0.0834
   27HTM    S1418628   8.334   4.473   9.755 -0.0265 -0.2078  0.0207
   28TAL   C13518629   8.699   4.622   9.867 -0.0440  0.5472 -0.9327
   28TAL   C13618630   8.741   4.764   9.891 -0.0305 -0.1548  0.5104
   28TAL   C13718631   8.886   4.778   9.864  0.1324 -0.1283  0.0240
   28TAL   C13818632   8.941   4.912   9.921  0.0111 -0.1697  0.8356
   28TAL   C13918633   9.094   4.950   9.902  0.0815  0.4238  0.9483
   28TAL   C14018634   9.156   4.950   9.759 -0.0583 -0.3596 -0.2312
   29HTM   C14118635   8.590   4.371   9.711 -0.0776  0.2639 -0.0627
   29HTM   C14218636   8.564   4.238   9.700 -0.1373  0.2453  0.2963
   29HTM   C14318637   8.670   4.163   9.638 -0.1116  0.0086  0.6233
   29HTM   C14418638   8.777   4.240   9.602 -0.0334 -0.1532  0.5135
   29HTM    S1518639   8.751   4.413   9.643  0.0157 -0.0185 -0.0153
   30TAL   C14518640   8.645   4.011   9.627  0.6790  0.5335  0.1646
   30TAL   C14618641   8.742   3.925   9.545  0.9340  0.4941 -0.0377
   30TAL   C14718642   8.698   3.780   9.547 -0.0442 -0.4555  0.0623
   30TAL   C14818643   8.787   3.689   9.461 -0.0295  0.2914 -0.5640
   30TAL   C14918644   8.793   3.550   9.529 -0.2887 -0.0278  0.1908
   30TAL   C15018645   8.896   3.446   9.483 -0.6469 -0.7160  0.1041
   31HTM   C15118646   8.910   4.212   9.555  0.3052  0.2284 -0.0793
   31HTM   C15218647   8.949   4.160   9.435  0.1960 -0.1175  0.0341
   31HTM   C15318648   9.088   4.123   9.430  0.0901 -0.5262  0.1531
   31HTM   C15418649   9.155   4.146   9.547  0.1183 -0.4916  0.1305
   31HTM    S1618650   9.047   4.218   9.672  0.2819  0.0636 -0.0442
   32TAL   C15518651   9.155   4.073   9.303  1.0007 -0.3484 -0.3082
   32TAL   C15618652   9.110   3.936   9.245  0.4551  0.5652  0.0865
   32TAL   C15718653   9.144   3.806   9.320  0.2310  0.1640 -0.0467
   32TAL   C15818654   9.291   3.775   9.308 -0.6855  0.0490 -0.0659
   32TAL   C15918655   9.325   3.654   9.397  1.1060  0.6289  0.3312
   32TAL   C16018656   9.470   3.624   9.401  0.7705 -0.1337 -0.3870
   33HTM   C16118657   9.288   4.115   9.588 -0.4153  0.2973  0.7729
   33HTM   C16218658   9.398   4.189   9.556 -0.6350  0.6685  0.8659
   33HTM   C16318659   9.522   4.133   9.605 -0.4126  0.6919  0.3377
   33HTM   C16418660   9.506   4.017   9.674 -0.0234  0.3383 -0.1579
   33HTM    S1718661   9.332   3.969   9.683  0.0934 -0.0544  0.0051
   34TAL   C16518662   9.652   4.189   9.563 -0.2156  0.2735 -0.4375
   34TAL   C16618663   9.673   4.278   9.441  0.3170  0.0880 -0.0697
   34TAL   C16718664   9.817   4.292   9.392  0.2909 -0.0721  0.2049
   34TAL   C16818665   9.814   4.364   9.257 -0.6768 -0.1073  0.3133
   34TAL   C16918666   9.943   4.383   9.183 -0.3384 -0.0145  0.2422
   34TAL   C17018667   9.921   4.432   9.039  0.4030  0.1210  0.0270
   35HTM   C17118668   9.607   3.924   9.727 -0.2605 -0.0504 -0.0310
   35HTM   C17218669   9.732   3.891   9.683 -0.1979  0.1773 -0.0219
   35HTM   C17318670   9.789   3.776   9.749  0.0020  0.2718 -0.0273
   35HTM   C17418671   9.707   3.721   9.843  0.0918  0.1164 -0.0405
   35HTM    S1818672   9.551   3.810   9.856 -0.0704 -0.1635 -0.0472
   36TAL   C17518673   9.920   3.729   9.701 -0.3502 -0.1766  0.4945
   36TAL   C17618674  10.049   3.773   9.769  0.2137  0.7335  0.9975
   36TAL   C17718675  10.072   3.923   9.810 -0.5036 -0.1595  0.4988
   36TAL   C17818676  10.081   4.023   9.698  0.2494  0.1265 -0.1415
   36TAL   C17918677  10.133   4.163   9.746 -0.1297 -0.1734 -0.0390
   36TAL   C18018678  10.127   4.275   9.643 -0.0011 -0.5358 -0.6998
   37HTM   C18118679   9.714   3.596   9.911  0.3031  0.0493  0.0149
   37HTM   C18218680   9.609   3.511   9.930  0.3050  0.0331 -0.0442
   37HTM   C18318681   9.644   3.388   9.996  0.2734  0.0720  0.0458
   37HTM   C18418682   9.777   3.379  10.026  0.2474  0.1176  0.1735
   37HTM    S1918683   9.868   3.526   9.974  0.2608  0.1152  0.1901
   38TAL   C18518684   9.538   3.274  10.007  0.0927 -1.0500  0.6511
   38TAL   C18618685   9.497   3.219   9.875 -0.0232  0.3939  0.2272
   38TAL   C18718686   9.409   3.100   9.867  0.4879  0.2626  0.0534
   38TAL   C18818687   9.259   3.108   9.903  0.0211 -0.7184 -0.3203
   38TAL   C18918688   9.185   3.224   9.830 -0.2592  0.1624 -0.2142
   38TAL   C19018689   9.040   3.230   9.886  0.1110  0.0852  0.0182
   39HTM   C19118690   9.863   3.283  10.097  0.1398  0.1932 -0.4017
   39HTM   C19218691   9.992   3.299  10.136  0.1897  0.3432 -0.6300
   39HTM   C19318692  10.049   3.183  10.198  0.3723  0.4735 -0.5527
   39HTM   C19418693   9.964   3.077  10.206  0.4616  0.4227 -0.2655
   39HTM    S2018694   9.802   3.117  10.136  0.3209  0.2048 -0.0687
   40TAL   C19518695  10.195   3.169  10.238 -0.8867  0.3193  0.1421
   40TAL   C19618696  10.299   3.255  10.173 -0.2728  0.1794 -0.6951
   40TAL   C19718697  10.440   3.212  10.210  0.4040 -0.2838  0.2344
   40TAL   C19818698  10.564   3.309  10.201  0.7614  0.5995  0.1054
   40TAL   C19918699  10.542   3.433  10.284 -0.4781 -0.1436 -0.5366
   40TAL   C20018700  10.660   3.524  10.290 -0.3996  0.0393 -0.3766
   41HTM   C20118701   9.960   2.949  10.270 -0.0044 -0.1367  0.1192
   41HTM   C20218702  10.059   2.897  10.348  0.0818  0.0225  0.1149
   41HTM   C20318703  10.032   2.764  10.396  0.3171 -0.0387  0.0792
   41HTM   C20418704   9.912   2.714  10.355  0.4103 -0.2447  0.0562
   41HTM    S2118705   9.823   2.832  10.251  0.2064 -0.3782  0.0781
   42TAL   C20518706  10.131   2.690  10.480 -0.0404 -0.5753  0.5090
   42TAL   C20618707  10.245   2.636  10.394  0.1417  0.3647 -0.3825
   42TAL   C20718708  10.368   2.582  10.463 -1.3143  0.3792 -0.4839
   42TAL   C20818709  10.468   2.683  10.504 -0.0257 -0.5088  0.1124
   42TAL   C20918710  10.611   2.632  10.543 -0.5404 -0.4706  0.4323
   42TAL   C21018711  10.720   2.740  10.565  0.1072  0.8680 -0.1488
   43HTM   C21118712   9.842   2.590  10.391 -0.2639  0.0421 -0.0201
   43HTM   C21218713   9.712   2.565  10.361 -0.2101 -0.0954 -0.1422
   43HTM   C21318714   9.674   2.427  10.376 -0.0398 -0.1631 -0.3274
   43HTM   C21418715   9.775   2.347  10.418  0.0362 -0.0772 -0.3463
   43HTM    S2218716   9.928   2.440  10.441 -0.1025  0.0972 -0.1302
   44TAL   C21518717   9.530   2.370  10.359 -0.6560  0.6013 -0.7819
   44TAL   C21618718   9.413   2.457  10.329  0.4926 -0.3063 -0.6319
   44TAL   C21718719   9.281   2.392  10.351  0.0692  0.2554 -0.1973
   44TAL   C21818720   9.172   2.492  10.380 -0.6754  0.1829 -0.9028
   44TAL   C21918721   9.032   2.439  10.398  0.2569 -0.9000  0.1385
   44TAL   C22018722   8.941   2.551  10.431  0.7795  0.1376  0.3914
   45HTM   C22118723   9.789   2.204  10.435 -0.0762  0.1327  0.0970
   45HTM   C22218724   9.875   2.145  10.522  0.1683  0.1013 -0.1688
   45HTM   C22318725   9.875   2.001  10.514  0.2989  0.1104 -0.3642
   45HTM   C22418726   9.787   1.951  10.422  0.1541  0.1484 -0.2475
   45HTM    S2318727   9.698   2.083  10.337 -0.1611  0.1759  0.1214
   46TAL   C22518728   9.972   1.919  10.593 -0.7263 -0.1424  0.1774
   46TAL   C22618729  10.037   1.982  10.723 -0.2681 -0.2793 -0.0585
   46TAL   C22718730   9.948   2.034  10.836  0.4779  0.5246 -0.0726
   46TAL   C22818731  10.025   2.090  10.947 -0.0491  0.5042 -0.7549
   46TAL   C22918732   9.932   2.148  11.056 -0.0826  0.1942  0.5768
   46TAL   C23018733  10.008   2.227  11.159  0.6053 -0.2731 -0.3835
   47HTM   C23118734   9.759   1.814  10.377 -0.1157  0.1129 -0.4171
   47HTM   C23218735   9.666   1.782  10.283  0.0323  0.1100 -0.5638
   47HTM   C23318736   9.648   1.640  10.264 -0.1489  0.1079 -0.3765
   47HTM   C23418737   9.728   1.564  10.345 -0.4350  0.1090 -0.0872
   47HTM    S2418738   9.833   1.667  10.450 -0.4983  0.1130 -0.0281
   48TAL   C23518739   9.547   1.586  10.161 -0.7193 -0.1247 -0.1377
   48TAL   C23618740   9.541   1.431  10.144 -0.3416 -0.3543 -0.2813
   48TAL   C23718741   9.417   1.394  10.064  0.2347 -0.0584  0.7209
   48TAL   C23818742   9.283   1.472  10.101 -0.6786  0.1311  0.1981
   48TAL   C23918743   9.155   1.394  10.062  0.4358  0.1561 -0.4425
   48TAL   C24018744   9.124   1.253  10.109  0.3234  0.2213  0.5669
    1HTM     C118745   6.573   4.900   7.830 -0.0508  0.2768 -0.3246
    1HTM     C218746   6.608   4.814   7.730  0.0982  0.2344 -0.2370
    1HTM     C318747   6.707   4.866   7.640  0.2160  0.2048 -0.1256
    1HTM     C418748   6.748   4.992   7.671  0.1568  0.2246 -0.1279
    1HTM     S118749   6.664   5.055   7.818 -0.0538  0.2827 -0.2723
    2TAL     C518750   6.766   4.774   7.527 -0.1650  0.0482 -0.3631
    2TAL     C618751   6.860   4.662   7.564  0.1244  0.7186 -0.0981
    2TAL     C718752   6.966   4.688   7.668 -0.0920 -0.1640 -0.2034
    2TAL     C818753   7.046   4.558   7.703 -0.3832  0.3175  0.6347
    2TAL     C918754   6.975   4.448   7.768  0.3123 -0.1295  0.4000
    2TAL    C1018755   7.070   4.333   7.756 -0.9097  0.3802  0.8314
    3HTM    C1118756   6.863   5.068   7.626 -0.0544  0.0485  0.4945
    3HTM    C1218757   6.940   5.050   7.516 -0.1998 -0.2773  0.4437
    3HTM    C1318758   7.045   5.148   7.502 -0.0911 -0.4373  0.1256
    3HTM    C1418759   7.048   5.240   7.602  0.1372 -0.2335 -0.0658
    3HTM     S218760   6.916   5.211   7.723  0.2331  0.1792  0.1419
    4TAL    C1518761   7.152   5.143   7.386  0.2027 -0.1651 -0.2623
    4TAL    C1618762   7.232   5.016   7.364 -0.0288  0.1570 -0.0187
    4TAL    C1718763   7.332   4.983   7.474 -0.0113  0.5403 -0.6290
    4TAL    C1818764   7.422   4.862   7.469  0.7748 -0.1852 -0.1110
    4TAL    C1918765   7.334   4.733   7.463 -0.6511  0.1998  0.8098
    4TAL    C2018766   7.424   4.606   7.441 -0.2464 -0.4276 -1.0106
    5HTM    C2118767   7.147   5.347   7.614  0.0227 -0.0438 -0.0078
    5HTM    C2218768   7.128   5.473   7.567 -0.0865 -0.1156 -0.1557
    5HTM    C2318769   7.243   5.559   7.582 -0.2031  0.0384 -0.1409
    5HTM    C2418770   7.349   5.498   7.641 -0.1820  0.2274  0.0182
    5HTM     S318771   7.313   5.326   7.682 -0.0123  0.2263  0.1630
    6TAL    C2518772   7.230   5.707   7.537 -0.6163  0.0591  0.2531
    6TAL    C2618773   7.114   5.791   7.598  1.0664  0.7128  0.1009
    6TAL    C2718774   7.129   5.935   7.575  0.6510 -0.3668 -0.3040
    6TAL    C2818775   7.085   5.984   7.436 -0.6993  0.7244 -0.1832
    6TAL    C2918776   7.086   6.131   7.414  0.1211 -0.1322 -0.8403
    6TAL    C3018777   7.036   6.187   7.284  0.8227  0.3256  0.6305
    7HTM    C3118778   7.481   5.544   7.673  0.4692  0.9927  0.0745
    7HTM    C3218779   7.550   5.640   7.603  1.0481  0.8788  0.4835
    7HTM    C3318780   7.688   5.652   7.643  1.0369  0.1121  0.7772
    7HTM    C3418781   7.725   5.566   7.742  0.4495 -0.3587  0.5920
    7HTM     S418782   7.586   5.462   7.794 -0.1394  0.1338  0.0282
    8TAL    C3518783   7.771   5.761   7.572 -0.0786 -0.5018  0.1506
    8TAL    C3618784   7.724   5.891   7.496  0.3185  0.2940  0.6556
    8TAL    C3718785   7.613   5.966   7.571  0.5255  0.1582  0.2792
    8TAL    C3818786   7.600   6.113   7.535  0.0378 -0.4155  0.2513
    8TAL    C3918787   7.470   6.176   7.579  0.2630  0.2542  0.1066
    8TAL    C4018788   7.464   6.316   7.526 -0.1298  0.4428  0.3373
    9HTM    C4118789   7.853   5.551   7.810  0.0057 -0.1028  0.1419
    9HTM    C4218790   7.882   5.597   7.935 -0.0567 -0.2899  0.2251
    9HTM    C4318791   8.011   5.556   7.984 -0.0830 -0.3657  0.2306
    9HTM    C4418792   8.081   5.479   7.896 -0.0403 -0.2369  0.1517
    9HTM     S518793   7.988   5.452   7.744  0.0374 -0.0073  0.0634
   10TAL    C4518794   8.057   5.587   8.125  0.0071  0.0785  0.1420
   10TAL    C4618795   8.080   5.728   8.163 -0.1901  0.0101 -0.2665
   10TAL    C4718796   7.950   5.809   8.192  0.3071 -0.1378  0.1783
   10TAL    C4818797   7.841   5.757   8.280 -0.2856 -0.3366 -0.1022
   10TAL    C4918798   7.765   5.883   8.321 -0.4223  0.1872 -0.1765
   10TAL    C5018799   7.641   5.839   8.411 -0.3847 -0.2641  0.2367
   11HTM    C5118800   8.201   5.401   7.917 -0.2773 -0.2865  0.2931
   11HTM    C5218801   8.203   5.265   7.918  0.0067 -0.2840  0.1981
   11HTM    C5318802   8.334   5.209   7.933  0.1554 -0.0229 -0.1090
   11HTM    C5418803   8.433   5.302   7.944 -0.0142  0.1736 -0.2482
   11HTM     S618804   8.367   5.470   7.936 -0.3781  0.0430 -0.0003
   12TAL    C5518805   8.338   5.059   7.950 -0.2933  0.3161 -0.1352
   12TAL    C5618806   8.346   5.000   8.090  0.4443  0.7158 -0.5330
   12TAL    C5718807   8.368   4.848   8.097  0.0951  0.1407  0.0405
   12TAL    C5818808   8.494   4.802   8.023 -0.2071 -0.1996 -0.3166
   12TAL    C5918809   8.524   4.655   8.027  0.1479 -0.0602  0.0953
   12TAL    C6018810   8.644   4.623   7.938  0.3952 -0.4333 -0.3175
   13HTM    C6118811   8.578   5.288   7.941 -0.1109 -0.0565 -0.3036
   13HTM    C6218812   8.655   5.183   7.981 -0.1402  0.0741  0.0997
   13HTM    C6318813   8.796   5.207   7.972 -0.1335  0.1278  0.3440
   13HTM    C6418814   8.828   5.332   7.926 -0.1000  0.0383  0.1275
   13HTM     S718815   8.680   5.428   7.889 -0.0729 -0.1225 -0.4062
   14TAL    C6518816   8.879   5.091   8.019 -0.4038 -0.5030 -0.3982
   14TAL    C6618817   9.018   5.116   8.089 -0.0442 -0.2508 -0.0257
   14TAL    C6718818   9.009   5.215   8.206  0.2982  0.4667 -0.6016
   14TAL    C6818819   9.146   5.246   8.272  0.0395  0.8069  0.0429
   14TAL    C6918820   9.133   5.311   8.405 -0.0230  0.0674  0.2038
   14TAL    C7018821   9.104   5.212   8.520 -0.3193  0.0162 -0.1081
   15HTM    C7118822   8.953   5.393   7.906  0.0019 -0.0305 -0.2361
   15HTM    C7218823   8.989   5.510   7.967 -0.2265  0.2475 -0.6311
   15HTM    C7318824   9.128   5.544   7.950 -0.2785  0.4342 -0.6959
   15HTM    C7418825   9.198   5.452   7.877 -0.0901  0.2988 -0.3501
   15HTM     S818826   9.093   5.316   7.822  0.1697 -0.0780  0.0877
   16TAL    C7518827   9.180   5.673   8.006 -0.1219 -0.2418  0.2542
   16TAL    C7618828   9.127   5.708   8.141  0.8305 -0.0022 -0.1456
   16TAL    C7718829   9.158   5.857   8.176  0.4576 -1.0380  0.2701
   16TAL    C7818830   9.115   5.976   8.078  1.0256  0.4435  0.1482
   16TAL    C7918831   8.963   5.981   8.046  0.5426  0.8409  0.1903
   16TAL    C8018832   8.928   6.100   7.958  0.0155 -0.2515 -0.4477
   17HTM    C8118833   9.345   5.434   7.858  0.3976 -0.2375 -0.0433
   17HTM    C8218834   9.413   5.318   7.837  0.6756  0.0248 -0.6030
   17HTM    C8318835   9.556   5.334   7.829  0.6236  0.4287 -0.7207
   17HTM    C8418836   9.597   5.463   7.845  0.3059  0.4746 -0.2507
   17HTM     S918837   9.457   5.575   7.871  0.0457  0.0073  0.3818
   18TAL    C8518838   9.643   5.216   7.798  0.1303  0.2181 -0.9503
   18TAL    C8618839   9.593   5.076   7.753 -0.0290 -0.8517 -0.0202
   18TAL    C8718840   9.508   5.059   7.629  0.0544 -0.5661  0.1081
   18TAL    C8818841   9.458   4.921   7.594 -0.6056  0.2886  0.1186
   18TAL    C8918842   9.550   4.795   7.615 -0.5640 -0.4468 -0.3346
   18TAL    C9018843   9.478   4.659   7.604 -0.4618  0.1654  0.2507
   19HTM    C9118844   9.729   5.514   7.858 -0.1599  0.5879  0.0402
   19HTM    C9218845   9.782   5.609   7.940  0.0252  0.7107 -0.2220
   19HTM    C9318846   9.923   5.631   7.919  0.0638  0.3943 -0.2956
   19HTM    C9418847   9.977   5.552   7.822 -0.0919  0.0298 -0.0897
   19HTM    S1018848   9.853   5.444   7.748 -0.3010  0.0587  0.2157
   20TAL    C9518849  10.001   5.733   8.001 -0.8273 -0.4683 -0.1289
   20TAL    C9618850   9.955   5.879   8.002  0.5411  0.3800 -0.4576
   20TAL    C9718851  10.034   5.973   8.097 -0.9619  0.0395 -0.7790
   20TAL    C9818852  10.054   5.943   8.249 -0.5288 -0.7537  0.2040
   20TAL    C9918853   9.925   5.918   8.333 -0.1553 -0.4638  0.4544
   20TAL   C10018854   9.825   6.036   8.336 -0.3198 -0.1401  0.3462
   21HTM   C10118855  10.105   5.555   7.762 -0.0687 -0.5729  0.3120
   21HTM   C10218856  10.135   5.574   7.631 -0.2227 -0.4804  0.2897
   21HTM   C10318857  10.275   5.556   7.600 -0.2189 -0.2210  0.1557
   21HTM   C10418858  10.351   5.524   7.708 -0.0618 -0.1162  0.0768
   21HTM    S1118859  10.252   5.514   7.858  0.0946 -0.3383  0.1651
   22TAL   C10518860  10.324   5.577   7.456 -0.6631  0.6699 -0.1107
   22TAL   C10618861  10.237   5.545   7.338  0.1785 -1.0460 -0.1899
   22TAL   C10718862  10.208   5.403   7.297 -0.6467  0.1268  0.4145
   22TAL   C10818863  10.147   5.400   7.159  0.4301  0.3682  0.0192
   22TAL   C10918864  10.117   5.259   7.102 -0.3146  0.6741  0.2322
   22TAL   C11018865  10.067   5.269   6.957 -0.4514  0.0403 -0.1614
   23HTM   C11118866  10.488   5.486   7.718 -0.2943  0.2628 -0.0568
   23HTM   C11218867  10.566   5.412   7.636 -0.4085  0.2470 -0.1521
   23HTM   C11318868  10.700   5.391   7.686 -0.4150  0.0467 -0.2162
   23HTM   C11418869  10.723   5.450   7.807 -0.3058 -0.0903 -0.1699
   23HTM    S1218870  10.576   5.537   7.867 -0.1854  0.0234 -0.0408
   24TAL   C11518871  10.804   5.317   7.599  0.2541 -0.3371 -0.5567
   24TAL   C11618872  10.865   5.405   7.495  0.2003  0.0903  0.3751
   24TAL   C11718873  10.936   5.537   7.520 -0.1745 -0.3063 -0.2017
   24TAL   C11818874  11.078   5.524   7.577 -0.1697  0.1224  0.0263
   24TAL   C11918875  11.159   5.655   7.585  0.5182  0.1933 -0.1259
   24TAL   C12018876  11.189   5.695   7.731 -0.1248 -0.8939 -0.4762
   25HTM   C12118877  10.837   5.447   7.896  0.0037 -0.1128 -0.2924
   25HTM   C12218878  10.867   5.550   7.981 -0.0880 -0.1535 -0.2115
   25HTM   C12318879  10.997   5.539   8.041 -0.2089 -0.2542  0.0310
   25HTM   C12418880  11.067   5.428   8.003 -0.2093 -0.2898  0.1342
   25HTM    S1318881  10.972   5.328   7.886 -0.0558 -0.1991 -0.0677
   26TAL   C12518882  11.038   5.640   8.155 -0.4199  0.5369 -0.5121
   26TAL   C12618883  10.929   5.693   8.245 -0.0514 -0.2793 -0.2778
   26TAL   C12718884  10.983   5.790   8.355  0.2895  0.2140 -0.0038
   26TAL   C12818885  10.883   5.807   8.458  0.2896  0.2839  0.2503
   26TAL   C12918886  10.914   5.915   8.553 -0.1133  0.2904  0.5326
   26TAL   C13018887  10.810   5.906   8.665 -0.2791  0.8441  0.1981
   27HTM   C13118888  11.204   5.374   8.034 -0.4342  0.0309  0.6128
   27HTM   C13218889  11.243   5.244   8.041 -0.6210 -0.0422  0.3071
   27HTM   C13318890  11.377   5.226   8.090 -0.5649 -0.3378  0.0477
   27HTM   C13418891  11.440   5.342   8.120 -0.3355 -0.4899  0.1553
   27HTM    S1418892  11.335   5.485   8.089 -0.1710 -0.2701  0.5971
   28TAL   C13518893  11.444   5.089   8.107  0.4936  0.3700  0.0600
   28TAL   C13618894  11.386   4.962   8.041  0.0876 -0.3165 -0.2409
   28TAL   C13718895  11.465   4.839   8.078 -0.1734 -0.1538 -0.1771
   28TAL   C13818896  11.440   4.706   8.006 -0.1970 -0.0224  0.4895
   28TAL   C13918897  11.544   4.601   8.041  0.7659 -0.0629 -0.1552
   28TAL   C14018898  11.546   4.469   7.970  0.1913  0.3417  0.2084
   29HTM   C14118899  11.571   5.371   8.177 -0.6442  0.1906  0.5019
   29HTM   C14218900  11.636   5.491   8.178 -1.0570  0.4127  0.8779
   29HTM   C14318901  11.768   5.485   8.234 -0.8202  0.5789  0.3414
   29HTM   C14418902  11.805   5.360   8.275 -0.2266  0.4836 -0.4432
   29HTM    S1518903  11.673   5.240   8.246  0.0815  0.1739 -0.5666
   30TAL   C14518904  11.858   5.609   8.232 -0.5678  0.4139 -0.1599
   30TAL   C14618905  11.797   5.733   8.279 -0.5131 -1.0019  0.0352
   30TAL   C14718906  11.880   5.862   8.280 -0.0035 -0.3303 -0.6320
   30TAL   C14818907  11.800   5.978   8.329  0.0683 -0.0947 -0.4334
   30TAL   C14918908  11.867   6.114   8.323 -0.0995  0.1283 -0.6114
   30TAL   C15018909  11.787   6.229   8.379  0.1476 -0.1120 -0.2634
   31HTM   C15118910  11.922   5.305   8.347  0.3448  0.0192  0.0503
   31HTM   C15218911  12.043   5.359   8.378  0.5320 -0.3009 -0.1073
   31HTM   C15318912  12.125   5.274   8.460  0.2977 -0.4067  0.0205
   31HTM   C15418913  12.067   5.154   8.490 -0.0681 -0.1676  0.2750
   31HTM    S1618914  11.903   5.140   8.417 -0.1460  0.2131  0.3752
   32TAL   C15518915  12.258   5.335   8.507  0.6761 -0.5600 -0.1574
   32TAL   C15618916  12.276   5.329   8.658 -0.3984  0.3765 -0.6607
   32TAL   C15718917  12.178   5.402   8.746  0.1823 -0.1035  0.4601
   32TAL   C15818918  12.216   5.377   8.893 -0.9445 -0.3310  0.0186
   32TAL   C15918919  12.135   5.443   9.004 -0.4180  0.6874  0.1652
   32TAL   C16018920  12.194   5.411   9.138  0.4179  0.0098 -0.1405
   33HTM   C16118921  12.131   5.040   8.558  0.1220  0.0098  0.0144
   33HTM   C16218922  12.260   5.013   8.590  0.1116 -0.3345 -0.2294
   33HTM   C16318923  12.281   4.880   8.641 -0.1493 -0.3831 -0.2494
   33HTM   C16418924  12.167   4.805   8.647 -0.3378 -0.0754 -0.0209
   33HTM    S1718925  12.023   4.899   8.589 -0.1995  0.3018  0.2390
   34TAL   C16518926  12.416   4.814   8.671  0.2004 -0.2301  0.0373
   34TAL   C16618927  12.542   4.897   8.639  0.7196  0.5341  0.1878
   34TAL   C16718928  12.558   5.020   8.733  0.0633  0.0465  0.0390
   34TAL   C16818929  12.682   5.100   8.690  0.1942 -0.0762  0.2299
   34TAL   C16918930  12.716   5.203   8.788  0.2451 -0.2755 -0.6292
   34TAL   C17018931  12.823   5.293   8.749 -0.2074 -0.0744 -0.0318
   35HTM   C17118932  12.141   4.669   8.689 -0.0106 -0.0637 -0.0345
   35HTM   C17218933  12.104   4.632   8.815 -0.2463 -0.0453 -0.0992
   35HTM   C17318934  12.077   4.491   8.829 -0.3576 -0.0293 -0.1488
   35HTM   C17418935  12.094   4.420   8.713 -0.2070 -0.0355 -0.1225
   35HTM    S1818936  12.146   4.528   8.577  0.0898 -0.0624 -0.0319
   36TAL   C17518937  12.047   4.441   8.965  0.4930  0.2822 -0.3756
   36TAL   C17618938  11.945   4.521   9.047  0.3546  0.1122 -0.7115
   36TAL   C17718939  11.805   4.559   8.978  0.2419  0.1709  0.3395
   36TAL   C17818940  11.740   4.680   9.041  0.2328 -0.1165  0.3331
   36TAL   C17918941  11.605   4.734   8.995  0.2513  0.6848 -0.0504
   36TAL   C18018942  11.614   4.787   8.851  0.0382  0.3766 -0.1566
   37HTM   C18118943  12.086   4.280   8.684 -0.6185  0.1076 -0.1675
   37HTM   C18218944  12.094   4.219   8.562 -0.6443  0.1912 -0.2117
   37HTM   C18318945  12.068   4.077   8.566 -0.2749  0.1214 -0.2437
   37HTM   C18418946  12.039   4.030   8.691  0.0326 -0.0162 -0.2247
   37HTM    S1918947  12.044   4.162   8.814 -0.1218 -0.0678 -0.1638
   38TAL   C18518948  12.070   3.998   8.438  0.7381  0.3694  0.1434
   38TAL   C18618949  11.934   3.959   8.389  0.3164  0.0739  0.3271
   38TAL   C18718950  11.905   3.861   8.270 -0.2073  0.5638  0.5094
   38TAL   C18818951  11.985   3.868   8.145  0.4701 -0.5935  0.1868
   38TAL   C18918952  11.957   3.758   8.044 -0.4070 -0.0054 -0.2017
   38TAL   C19018953  12.042   3.751   7.924 -0.5890 -0.1758 -0.1050
   39HTM   C19118954  11.994   3.896   8.729 -0.2597  0.0014  0.2225
   39HTM   C19218955  11.862   3.863   8.728 -0.2320 -0.1053  0.1340
   39HTM   C19318956  11.837   3.722   8.716 -0.1105 -0.1245  0.1092
   39HTM   C19418957  11.951   3.646   8.709 -0.0456 -0.0324  0.1789
   39HTM    S2018958  12.099   3.749   8.717 -0.1331  0.0865  0.2822
   40TAL   C19518959  11.695   3.682   8.711  0.1652  0.0378 -0.1148
   40TAL   C19618960  11.651   3.639   8.576 -0.1876  0.1378  0.3692
   40TAL   C19718961  11.587   3.742   8.482 -0.7269 -0.7130  0.4257
   40TAL   C19818962  11.523   3.686   8.360 -0.3017  0.0919  0.3520
   40TAL   C19918963  11.463   3.777   8.261 -0.0413 -0.4887 -0.2168
   40TAL   C20018964  11.487   3.732   8.119 -0.3854 -0.5603 -0.2927
   41HTM   C20118965  11.963   3.503   8.709 -0.0884  0.3944 -0.0709
   41HTM   C20218966  12.087   3.446   8.707  0.0150  0.6325 -0.4473
   41HTM   C20318967  12.085   3.303   8.688  0.2387  0.6442 -0.5641
   41HTM   C20418968  11.960   3.251   8.676  0.3057  0.4151 -0.2772
   41HTM    S2118969  11.834   3.380   8.688  0.0898  0.1647  0.1669
   42TAL   C20518970  12.216   3.221   8.678  0.2307 -0.4334 -0.1849
   42TAL   C20618971  12.289   3.205   8.812 -0.3760 -0.2195 -0.5167
   42TAL   C20718972  12.411   3.124   8.808  0.1096  1.5631  0.7550
   42TAL   C20818973  12.525   3.199   8.741 -0.3366 -0.3533 -0.2793
   42TAL   C20918974  12.657   3.119   8.759 -0.1356 -0.3507 -0.4212
   42TAL   C21018975  12.761   3.193   8.675  0.3472 -0.1084 -0.4278
   43HTM   C21118976  11.912   3.112   8.658  0.3628  0.1971 -0.1994
   43HTM   C21218977  11.791   3.082   8.603  0.4646  0.3071 -0.4873
   43HTM   C21318978  11.774   2.942   8.575  0.4243  0.3299 -0.5755
   43HTM   C21418979  11.881   2.865   8.608  0.2919  0.2374 -0.3556
   43HTM    S2218980  12.014   2.965   8.678  0.2071  0.1134 -0.0167
   44TAL   C21518981  11.634   2.898   8.518 -0.5468 -0.9819  0.1734
   44TAL   C21618982  11.577   2.757   8.502 -0.3438 -0.1620 -0.2620
   44TAL   C21718983  11.550   2.695   8.634  0.5202  0.4258  0.7274
   44TAL   C21818984  11.497   2.552   8.615 -0.0546 -0.2291  0.0484
   44TAL   C21918985  11.452   2.482   8.744 -0.0194  0.1664 -0.0565
   44TAL   C22018986  11.420   2.333   8.709 -0.2682  0.3908  0.2292
   45HTM   C22118987  11.905   2.725   8.585  0.1897 -0.1599 -0.2758
   45HTM   C22218988  11.937   2.675   8.462  0.0756 -0.1580 -0.3071
   45HTM   C22318989  11.944   2.531   8.458 -0.0197 -0.1622 -0.3386
   45HTM   C22418990  11.918   2.472   8.578  0.0221 -0.1672 -0.3317
   45HTM    S2318991  11.882   2.593   8.706  0.1858 -0.1672 -0.2848
   46TAL   C22518992  11.969   2.471   8.327 -0.1652  0.6847  0.2592
   46TAL   C22618993  11.850   2.460   8.231 -0.4349 -0.5373  0.1202
   46TAL   C22718994  11.800   2.598   8.178  0.3166  0.1495  0.2558
   46TAL   C22818995  11.678   2.591   8.080 -0.2339 -0.3394 -0.2961
   46TAL   C22918996  11.548   2.540   8.150 -0.0046 -0.2890  0.5668
   46TAL   C23018997  11.420   2.556   8.066  0.0370 -0.1335  0.5583
   47HTM   C23118998  11.912   2.332   8.609 -0.1416  0.0264 -0.3462
   47HTM   C23218999  11.979   2.227   8.552 -0.2043  0.0544 -0.4716
   47HTM   C23319000  11.949   2.100   8.613 -0.0428  0.0409 -0.4215
   47HTM   C23419001  11.860   2.107   8.716  0.1431  0.0024 -0.2571
   47HTM    S2419002  11.806   2.277   8.745  0.1285 -0.0197 -0.1526
   48TAL   C23519003  12.033   1.981   8.575 -0.0834 -0.8173 -0.0821
   48TAL   C23619004  12.172   2.003   8.543  0.4329 -0.5763  1.4082
   48TAL   C23719005  12.273   1.890   8.554  0.4824  0.2474 -0.1585
   48TAL   C23819006  12.242   1.759   8.480  0.4663 -0.4785  0.1591
   48TAL   C23919007  12.356   1.671   8.506 -0.8476 -0.0044 -0.0351
   48TAL   C24019008  12.337   1.528   8.465 -0.5073  0.7825  0.6162
    1HTM     C119009   7.988   5.916   1.903 -0.1632  0.3830 -0.4620
    1HTM     C219010   8.086   5.822   1.911 -0.2718  0.2587 -0.5775
    1HTM     C319011   8.219   5.877   1.913 -0.2131  0.1149 -0.2993
    1HTM     C419012   8.222   6.013   1.905 -0.0610  0.1291  0.0284
    1HTM     S119013   8.056   6.083   1.897  0.0229  0.3272  0.0109
    2TAL     C519014   8.339   5.779   1.919 -0.6724 -0.1304 -0.4389
    2TAL     C619015   8.359   5.697   2.047  0.4116 -0.1909  0.8142
    2TAL     C719016   8.354   5.762   2.182  0.0787 -0.5797 -0.2963
    2TAL     C819017   8.433   5.892   2.216  0.0877  0.9468 -0.5388
    2TAL     C919018   8.392   5.924   2.362 -1.0622  0.6208  0.4204
    2TAL    C1019019   8.429   6.069   2.400 -0.5786  0.1513  0.3946
    3HTM    C1119020   8.334   6.101   1.907 -0.1666 -0.0344  0.2725
    3HTM    C1219021   8.418   6.121   1.801 -0.1545 -0.0806  0.2735
    3HTM    C1319022   8.519   6.221   1.826 -0.1311 -0.0999  0.2565
    3HTM    C1419023   8.512   6.277   1.949 -0.1258 -0.0686  0.2424
    3HTM     S219024   8.376   6.208   2.046 -0.1504 -0.0116  0.2497
    4TAL    C1519025   8.615   6.265   1.711  0.1863  0.2376  0.5588
    4TAL    C1619026   8.607   6.404   1.652 -0.4106  0.0566  0.0546
    4TAL    C1719027   8.469   6.451   1.620 -0.1821  0.3725  0.1641
    4TAL    C1819028   8.465   6.605   1.603  0.2830 -0.0025  0.1866
    4TAL    C1919029   8.327   6.674   1.602  0.0510 -0.4670  0.4486
    4TAL    C2019030   8.217   6.623   1.506 -0.4390  0.2637  0.2898
    5HTM    C2119031   8.612   6.364   2.013 -0.1606 -0.1771  0.1872
    5HTM    C2219032   8.727   6.331   2.078 -0.1316  0.0839  0.2694
    5HTM    C2319033   8.799   6.445   2.131 -0.2475  0.2747  0.0166
    5HTM    C2419034   8.738   6.564   2.106 -0.3644  0.1589 -0.2581
    5HTM     S319035   8.585   6.543   2.014 -0.3383 -0.2025 -0.2189
    6TAL    C2519036   8.927   6.432   2.205 -0.5620  0.4713  0.2689
    6TAL    C2619037   8.952   6.304   2.288 -0.6849  0.3153  1.0942
    6TAL    C2719038   8.861   6.293   2.406  0.3349 -0.0476 -0.2947
    6TAL    C2819039   8.828   6.149   2.456  0.0404 -0.0017 -0.0200
    6TAL    C2919040   8.948   6.064   2.496 -0.2821  0.1327 -0.0639
    6TAL    C3019041   8.902   5.931   2.557  0.3509 -0.1693 -0.0328
    7HTM    C3119042   8.779   6.700   2.134  0.1299 -0.5512  0.1872
    7HTM    C3219043   8.764   6.812   2.058  0.1497 -0.7944 -0.1746
    7HTM    C3319044   8.807   6.933   2.123  0.1020 -0.5820 -0.5358
    7HTM    C3419045   8.856   6.913   2.248  0.0453 -0.1769 -0.4492
    7HTM     S419046   8.850   6.739   2.295  0.0471 -0.0316  0.0994
    8TAL    C3519047   8.802   7.068   2.049  0.2618 -0.1123  0.2408
    8TAL    C3619048   8.913   7.085   1.949  0.0409  1.0065  0.2499
    8TAL    C3719049   8.919   7.219   1.876  0.6952  0.1111 -0.0395
    8TAL    C3819050   8.968   7.334   1.960 -0.0083  0.0739 -0.3258
    8TAL    C3919051   8.979   7.479   1.904  0.4611 -0.6780 -0.0324
    8TAL    C4019052   8.847   7.556   1.874  0.1890  0.9147  0.2013
    9HTM    C4119053   8.908   7.000   2.354 -0.0253  0.0725  0.0180
    9HTM    C4219054   8.961   6.959   2.473  0.0420 -0.0045 -0.0381
    9HTM    C4319055   9.019   7.066   2.551  0.0949 -0.0563 -0.0066
    9HTM    C4419056   9.010   7.188   2.491  0.0672 -0.0192  0.0738
    9HTM     S519057   8.928   7.178   2.330 -0.0282  0.0854  0.1162
   10TAL    C4519058   9.092   7.038   2.678 -0.5847  0.4161 -0.4539
   10TAL    C4619059   9.238   7.079   2.694  0.0787 -0.2438  0.2796
   10TAL    C4719060   9.336   7.013   2.610 -0.2328 -0.5569 -0.4654
   10TAL    C4819061   9.376   6.874   2.661 -0.4035  0.0874  0.4263
   10TAL    C4919062   9.511   6.826   2.613 -0.3285  0.0228 -0.2158
   10TAL    C5019063   9.556   6.682   2.655  0.5360  0.3002  0.1073
   11HTM    C5119064   9.041   7.318   2.532  0.0460 -0.0624  0.1903
   11HTM    C5219065   9.161   7.382   2.519  0.0661 -0.0694  0.3340
   11HTM    C5319066   9.171   7.501   2.599 -0.0080 -0.0925  0.3780
   11HTM    C5419067   9.060   7.528   2.673 -0.0845 -0.1027  0.2678
   11HTM     S619068   8.932   7.403   2.648 -0.0686 -0.0843  0.0989
   12TAL    C5519069   9.296   7.583   2.607 -0.2609 -0.3268  0.3889
   12TAL    C5619070   9.424   7.499   2.628 -0.0797  0.0763 -0.0095
   12TAL    C5719071   9.540   7.596   2.640  0.0047  0.1305 -0.0876
   12TAL    C5819072   9.588   7.649   2.509  0.2057 -0.4558  0.5067
   12TAL    C5919073   9.716   7.735   2.528 -0.0116 -0.2611 -0.1211
   12TAL    C6019074   9.746   7.791   2.396 -0.1588  0.1913 -0.2967
   13HTM    C6119075   9.027   7.637   2.761  0.1766 -0.1452  0.1526
   13HTM    C6219076   9.109   7.724   2.828  0.1054 -0.0672  0.1390
   13HTM    C6319077   9.039   7.809   2.921 -0.0004  0.0796 -0.0737
   13HTM    C6419078   8.904   7.787   2.925 -0.0097  0.1139 -0.2223
   13HTM     S719079   8.855   7.657   2.810  0.1146 -0.0381 -0.1041
   14TAL    C6519080   9.113   7.908   3.008 -0.4465 -0.0931  0.1548
   14TAL    C6619081   9.161   8.051   2.961  0.2562 -0.3838  0.0384
   14TAL    C6719082   9.275   8.057   2.857 -0.1252 -0.5933  0.2256
   14TAL    C6819083   9.405   7.986   2.902 -0.4001 -0.1060  0.0904
   14TAL    C6919084   9.538   8.023   2.834  0.4617 -0.0527  0.6576
   14TAL    C7019085   9.666   7.952   2.878  0.1137 -1.2094 -0.2107
   15HTM    C7119086   8.792   7.830   3.011 -0.0372  0.1947  0.3131
   15HTM    C7219087   8.671   7.771   3.027  0.0196  0.1614  0.6276
   15HTM    C7319088   8.587   7.835   3.125  0.1202  0.3500  0.5894
   15HTM    C7419089   8.646   7.943   3.184  0.1405  0.5277  0.2460
   15HTM     S819090   8.812   7.972   3.119  0.0328  0.4698 -0.0584
   16TAL    C7519091   8.439   7.802   3.132 -0.1066  0.2210 -0.2159
   16TAL    C7619092   8.398   7.657   3.169 -0.1310  0.5745  0.3423
   16TAL    C7719093   8.464   7.617   3.305  0.0388  0.2273 -0.0815
   16TAL    C7819094   8.374   7.664   3.422  0.5033 -0.6314  0.2288
   16TAL    C7919095   8.260   7.570   3.464 -0.1574 -0.1704 -0.2182
   16TAL    C8019096   8.313   7.436   3.528  0.0578  0.3030  0.8826
   17HTM    C8119097   8.601   8.026   3.291  0.2953 -0.2376  0.1447
   17HTM    C8219098   8.673   8.133   3.337  0.1564 -0.1702  0.2089
   17HTM    C8319099   8.624   8.188   3.460 -0.1035 -0.1140  0.0806
   17HTM    C8419100   8.514   8.123   3.509 -0.1618 -0.1370 -0.0814
   17HTM     S919101   8.464   7.987   3.402  0.1090 -0.2334 -0.0842
   18TAL    C8519102   8.705   8.296   3.532 -0.0129 -0.7626  0.1635
   18TAL    C8619103   8.857   8.257   3.550  0.8508  0.0870 -0.9914
   18TAL    C8719104   8.932   8.360   3.636 -0.3916 -0.0087  0.5250
   18TAL    C8819105   9.076   8.314   3.667  0.0011 -0.0233  0.2939
   18TAL    C8919106   9.171   8.420   3.728 -0.2573  0.3838 -0.0826
   18TAL    C9019107   9.299   8.338   3.756  0.3356 -0.0700  0.4583
   19HTM    C9119108   8.419   8.161   3.610 -0.1690  0.1806  0.0632
   19HTM    C9219109   8.430   8.237   3.722 -0.4091  0.1655  0.0972
   19HTM    C9319110   8.308   8.246   3.799 -0.5455  0.0768 -0.1100
   19HTM    C9419111   8.204   8.176   3.745 -0.4104  0.0244 -0.3020
   19HTM    S1019112   8.253   8.093   3.592 -0.0976  0.0828 -0.2355
   20TAL    C9519113   8.318   8.319   3.933 -1.0910 -0.8175  0.0726
   20TAL    C9619114   8.352   8.472   3.930 -0.5601  0.2900 -0.2728
   20TAL    C9719115   8.277   8.568   3.835  0.3339  0.5319 -0.2354
   20TAL    C9819116   8.121   8.556   3.832  0.1877 -0.2172 -0.6178
   20TAL    C9919117   8.039   8.606   3.947  0.7220 -0.8166 -0.9158
   20TAL   C10019118   7.898   8.554   3.937 -0.0835 -0.1538  0.4649
   21HTM   C10119119   8.065   8.158   3.791  0.1999 -0.1869  0.2736
   21HTM   C10219120   8.004   8.216   3.898  0.5016 -0.7501  0.7550
   21HTM   C10319121   7.870   8.166   3.921  0.4900 -0.7219  0.7453
   21HTM   C10419122   7.830   8.071   3.832  0.1786 -0.1372  0.2568
   21HTM    S1119123   7.959   8.037   3.710 -0.1262  0.4270 -0.2330
   22TAL   C10519124   7.789   8.220   4.035 -0.7461 -0.0121  0.5596
   22TAL   C10619125   7.819   8.170   4.176 -0.0218 -0.2642  0.3208
   22TAL   C10719126   7.955   8.156   4.243  0.0724 -0.5059  0.2090
   22TAL   C10819127   8.028   8.285   4.256  0.0818  0.0789 -0.0061
   22TAL   C10919128   8.164   8.249   4.323 -0.2463  0.1208  0.2022
   22TAL   C11019129   8.270   8.356   4.319  0.9775  0.3789 -0.3613
   23HTM   C11119130   7.708   7.989   3.831  0.0116 -0.1431  0.2125
   23HTM   C11219131   7.580   8.018   3.867  0.2067 -0.3300  1.0701
   23HTM   C11319132   7.495   7.902   3.875  0.2918 -0.3912  1.0954
   23HTM   C11419133   7.558   7.785   3.845  0.1610 -0.2502  0.2572
   23HTM    S1219134   7.731   7.813   3.804 -0.0810 -0.0279 -0.6361
   24TAL   C11519135   7.352   7.912   3.929 -1.0588 -0.8567  0.4744
   24TAL   C11619136   7.329   7.924   4.076  0.9272  0.3830 -0.8745
   24TAL   C11719137   7.409   7.830   4.174 -0.0482  0.1277 -0.0061
   24TAL   C11819138   7.549   7.865   4.214  0.6076 -0.5504 -0.1748
   24TAL   C11919139   7.621   7.786   4.319 -0.3725  0.2190  0.1767
   24TAL   C12019140   7.752   7.849   4.373  0.0262 -0.5213 -0.4816
   25HTM   C12119141   7.504   7.650   3.834  0.2408 -0.1680 -0.3732
   25HTM   C12219142   7.579   7.536   3.839 -0.0017 -0.3350 -0.5367
   25HTM   C12319143   7.503   7.416   3.822 -0.3173 -0.1688 -0.2985
   25HTM   C12419144   7.369   7.437   3.805 -0.3153  0.1244  0.0467
   25HTM    S1319145   7.330   7.613   3.808  0.0883  0.2145  0.0981
   26TAL   C12519146   7.567   7.276   3.830  0.7421 -0.0802 -0.2173
   26TAL   C12619147   7.668   7.245   3.723  0.1784 -0.1787 -0.2721
   26TAL   C12719148   7.739   7.105   3.733  0.2042 -0.0159 -0.0917
   26TAL   C12819149   7.851   7.093   3.632  0.2089 -0.4621 -0.3657
   26TAL   C12919150   7.912   6.959   3.622 -1.2872 -0.5096 -0.3882
   26TAL   C13019151   7.824   6.841   3.587 -0.2571 -0.7478  0.0228
   27HTM   C13119152   7.251   7.345   3.809 -0.1846  0.1474  0.0285
   27HTM   C13219153   7.244   7.214   3.843 -0.0355  0.0839 -0.1867
   27HTM   C13319154   7.111   7.159   3.836  0.0281 -0.0608 -0.2918
   27HTM   C13419155   7.016   7.249   3.798 -0.0719 -0.1076 -0.1569
   27HTM    S1419156   7.089   7.412   3.766 -0.2563  0.0283  0.1154
   28TAL   C13519157   7.087   7.016   3.887  0.1997  0.4551  0.4821
   28TAL   C13619158   7.153   6.913   3.796 -0.5532 -0.8901  0.1620
   28TAL   C13719159   7.153   6.770   3.855  0.6523  0.2434  0.4563
   28TAL   C13819160   7.019   6.704   3.883 -0.3069  0.0969 -0.8156
   28TAL   C13919161   6.940   6.672   3.756 -0.3840 -0.0374 -0.1020
   28TAL   C14019162   6.802   6.617   3.787  0.0621  0.0476 -0.5741
   29HTM   C14119163   6.872   7.242   3.782 -0.0532 -0.1679 -0.5384
   29HTM   C14219164   6.782   7.345   3.781 -0.1140 -0.2222 -0.5878
   29HTM   C14319165   6.645   7.301   3.770 -0.1025 -0.3185 -0.3626
   29HTM   C14419166   6.631   7.166   3.763 -0.0323 -0.3375 -0.1412
   29HTM    S1519167   6.790   7.082   3.770  0.0247 -0.2346 -0.2008
   30TAL   C14519168   6.539   7.403   3.750 -0.3957 -0.4003 -0.3674
   30TAL   C14619169   6.494   7.480   3.868 -0.1995 -0.5465 -0.2717
   30TAL   C14719170   6.396   7.583   3.831 -0.3886 -0.1216 -0.0901
   30TAL   C14819171   6.346   7.661   3.952 -0.2357  0.1953  0.3997
   30TAL   C14919172   6.247   7.754   3.890 -0.2991 -0.1223  0.7186
   30TAL   C15019173   6.179   7.832   3.998 -0.4720 -0.1254 -0.0394
   31HTM   C15119174   6.522   7.075   3.741  0.0331  0.4489  0.3353
   31HTM   C15219175   6.512   6.948   3.791  0.3071  0.5329  0.6099
   31HTM   C15319176   6.387   6.884   3.761  0.5012  0.1442  0.6247
   31HTM   C15419177   6.301   6.961   3.688  0.3749 -0.2363  0.3618
   31HTM    S1619178   6.373   7.123   3.653 -0.0016 -0.1320  0.0726
   32TAL   C15519179   6.375   6.741   3.813 -0.4853  0.1498  0.3565
   32TAL   C15619180   6.369   6.638   3.699 -0.0524  0.6377 -0.5533
   32TAL   C15719181   6.401   6.502   3.759 -0.8888  0.5178 -0.0130
   32TAL   C15819182   6.376   6.382   3.668  0.1503  0.0824  0.0238
   32TAL   C15919183   6.385   6.242   3.734 -0.0962  0.5673  0.1010
   32TAL   C16019184   6.349   6.121   3.645 -0.0360  0.0103  0.2255
   33HTM   C16119185   6.163   6.936   3.647 -0.0441  0.1105  0.2442
   33HTM   C16219186   6.073   6.844   3.690 -0.1225  0.1316  0.1253
   33HTM   C16319187   5.943   6.856   3.628 -0.0117  0.1025 -0.1147
   33HTM   C16419188   5.935   6.958   3.538  0.1516  0.0586 -0.1790
   33HTM    S1719189   6.091   7.047   3.523  0.1780  0.0510  0.0608
   34TAL   C16519190   5.828   6.762   3.653  0.5041  0.8759 -0.0227
   34TAL   C16619191   5.846   6.612   3.692  0.1292  0.1872  0.3151
   34TAL   C16719192   5.948   6.536   3.608 -0.3197 -0.0189 -0.5697
   34TAL   C16819193   5.994   6.400   3.655 -0.4722 -0.0705  0.3206
   34TAL   C16919194   5.885   6.294   3.663 -0.0791  0.1558  0.2597
   34TAL   C17019195   5.929   6.163   3.722  0.4768 -0.0185  0.5661
   35HTM   C17119196   5.824   7.005   3.451 -0.0234 -0.1156  0.1641
   35HTM   C17219197   5.798   6.948   3.330  0.3486  0.1280 -0.0337
   35HTM   C17319198   5.674   6.993   3.271  0.4570  0.1366 -0.2574
   35HTM   C17419199   5.606   7.083   3.348  0.1679 -0.1006 -0.2297
   35HTM    S1819200   5.695   7.119   3.501 -0.2673 -0.3554  0.0830
   36TAL   C17519201   5.629   6.952   3.130 -0.7956  0.2215 -0.1470
   36TAL   C17619202   5.733   6.967   3.018 -0.2983  0.6470  0.0509
   36TAL   C17719203   5.688   6.921   2.881  0.1737 -0.2090  0.4767
   36TAL   C17819204   5.800   6.892   2.788  0.3432  0.5786 -0.2557
   36TAL   C17919205   5.766   6.854   2.643  0.3300 -0.3896  0.4725
   36TAL   C18019206   5.857   6.746   2.578  0.3035  0.8698  0.6982
   37HTM   C18119207   5.483   7.147   3.326 -0.1170  0.1348  0.0695
   37HTM   C18219208   5.456   7.279   3.343 -0.0980  0.1798 -0.2489
   37HTM   C18319209   5.323   7.317   3.304 -0.0305  0.1447 -0.5226
   37HTM   C18419210   5.247   7.213   3.258  0.0017  0.0729 -0.4128
   37HTM    S1919211   5.340   7.058   3.260 -0.0511  0.0437  0.0482
   38TAL   C18519212   5.277   7.464   3.306  0.2139 -0.2561 -0.7686
   38TAL   C18619213   5.380   7.574   3.295  0.3770 -0.0642  0.1984
   38TAL   C18719214   5.339   7.717   3.330  0.2535  0.7100  0.0607
   38TAL   C18819215   5.450   7.815   3.294  0.4364 -0.1222 -0.7222
   38TAL   C18919216   5.418   7.952   3.358 -0.6674 -0.5094  0.3683
   38TAL   C19019217   5.517   8.062   3.355  0.0402 -0.0137  0.2164
   39HTM   C19119218   5.104   7.195   3.224 -0.1463 -0.1728  0.1505
   39HTM   C19219219   5.043   7.073   3.218 -0.2663 -0.1225  0.3383
   39HTM   C19319220   4.899   7.081   3.214 -0.2677  0.0021  0.5869
   39HTM   C19419221   4.851   7.208   3.217 -0.1491  0.0472  0.5887
   39HTM    S2019222   4.984   7.329   3.225 -0.0255 -0.0657  0.2739
   40TAL   C19519223   4.813   6.953   3.208  0.0046  0.0724 -0.6022
   40TAL   C19619224   4.881   6.841   3.138  0.1842  0.0045  0.4031
   40TAL   C19719225   4.824   6.697   3.134 -0.1648  0.3759 -0.3647
   40TAL   C19819226   4.682   6.676   3.080 -0.5177  0.4875  0.2694
   40TAL   C19919227   4.656   6.733   2.944 -0.0797 -0.1163  0.3447
   40TAL   C20019228   4.547   6.662   2.872 -0.1647 -0.2263  0.1213
   41HTM   C20119229   4.720   7.266   3.226 -0.1515 -0.3235 -0.2170
   41HTM   C20219230   4.684   7.394   3.197 -0.2682 -0.4566 -0.6657
   41HTM   C20319231   4.542   7.418   3.205 -0.2718 -0.5121 -0.5704
   41HTM   C20419232   4.470   7.307   3.241 -0.1581 -0.4212 -0.0492
   41HTM    S2119233   4.577   7.164   3.267 -0.0363 -0.2575  0.3651
   42TAL   C20519234   4.487   7.555   3.166  0.4455  0.7525  0.5486
   42TAL   C20619235   4.479   7.670   3.266  0.2227 -0.3757  0.3127
   42TAL   C20719236   4.457   7.799   3.193 -0.5900 -0.1858 -0.1489
   42TAL   C20819237   4.421   7.922   3.271  0.4800 -0.2556  0.2023
   42TAL   C20919238   4.424   8.040   3.181  0.1085 -0.8329  0.0245
   42TAL   C21019239   4.382   8.166   3.251  0.2896 -0.2873 -0.0762
   43HTM   C21119240   4.327   7.295   3.271 -0.2417  0.3107 -0.4397
   43HTM   C21219241   4.246   7.191   3.237 -0.2823  0.4828 -0.8627
   43HTM   C21319242   4.115   7.198   3.297 -0.2255  0.2055 -0.7097
   43HTM   C21419243   4.097   7.306   3.377 -0.1421 -0.1779 -0.1698
   43HTM    S2219244   4.245   7.409   3.384 -0.1282 -0.2189  0.1899
   44TAL   C21519245   4.003   7.097   3.269  0.0939 -0.5209 -0.3943
   44TAL   C21619246   3.991   7.047   3.126  0.1362  0.5911 -0.1519
   44TAL   C21719247   4.004   6.895   3.124 -0.0452 -0.9961  0.4129
   44TAL   C21819248   4.140   6.830   3.162  0.2877 -0.3307 -0.5379
   44TAL   C21919249   4.261   6.870   3.083  0.2771  0.4105  0.1519
   44TAL   C22019250   4.386   6.863   3.175  0.8452 -0.0299 -0.0285
   45HTM   C22119251   3.985   7.353   3.454 -0.5212  0.3494 -0.3632
   45HTM   C22219252   3.858   7.303   3.463 -0.5082  0.3524 -0.1510
   45HTM   C22319253   3.768   7.386   3.539 -0.2793  0.1566  0.3353
   45HTM   C22419254   3.827   7.499   3.589 -0.1176  0.0043  0.4939
   45HTM    S2319255   4.001   7.509   3.543 -0.2430  0.0972  0.0377
   46TAL   C22519256   3.629   7.335   3.559 -0.3578 -0.4109  0.0781
   46TAL   C22619257   3.503   7.405   3.518  0.0053  0.0444 -0.5576
   46TAL   C22719258   3.388   7.367   3.605  0.6093 -0.2351  0.0251
   46TAL   C22819259   3.258   7.421   3.545 -0.1785  0.0747  0.1232
   46TAL   C22919260   3.150   7.346   3.609 -0.3407  1.0265  0.1348
   46TAL   C23019261   3.012   7.352   3.538  0.3267  0.2183 -0.1195
   47HTM   C23119262   3.781   7.608   3.673  0.0711  0.1037  0.2650
   47HTM   C23219263   3.658   7.664   3.668  0.1974  0.3746  0.1869
   47HTM   C23319264   3.641   7.776   3.757  0.4016  0.4439  0.1378
   47HTM   C23419265   3.752   7.805   3.830  0.4310  0.2262  0.1787
   47HTM    S2419266   3.888   7.692   3.792  0.2014 -0.0856  0.2830
   48TAL   C23519267   3.505   7.846   3.773 -0.1668 -0.6427  0.8838
   48TAL   C23619268   3.388   7.832   3.676  0.2164  0.5993  0.7118
   48TAL   C23719269   3.396   7.867   3.522  0.4033  0.2503  0.2361
   48TAL   C23819270   3.409   8.011   3.497 -0.8981  0.3648  1.1362
   48TAL   C23919271   3.397   8.044   3.349 -0.6132 -0.0862  0.3549
   48TAL   C24019272   3.472   8.173   3.313  0.0062  0.2120 -0.0936
    1HTM     C119273   4.955   8.026   8.865  0.1015 -0.1102 -0.0192
    1HTM     C219274   4.891   8.136   8.913  0.1369 -0.0753 -0.0520
    1HTM     C319275   4.968   8.257   8.902  0.1624 -0.0973 -0.1187
    1HTM     C419276   5.091   8.239   8.845  0.1470 -0.1498 -0.1356
    1HTM     S119277   5.119   8.067   8.801  0.0982 -0.1745 -0.0699
    2TAL     C519278   4.908   8.389   8.953 -0.0940 -0.2633  0.3795
    2TAL     C619279   4.754   8.412   8.949  0.1396 -0.0616  0.4301
    2TAL     C719280   4.687   8.366   8.823  0.2487  0.3898 -0.2321
    2TAL     C819281   4.542   8.401   8.809 -0.0299 -0.3641  0.9349
    2TAL     C919282   4.499   8.364   8.669  0.6262  0.1288 -0.1339
    2TAL    C1019283   4.354   8.403   8.663  0.4942 -0.2121  0.1939
    3HTM    C1119284   5.204   8.326   8.812 -0.3086 -0.1491 -0.0045
    3HTM    C1219285   5.339   8.306   8.813 -0.3047 -0.1197  0.4325
    3HTM    C1319286   5.414   8.419   8.766 -0.1771 -0.1163  0.6428
    3HTM    C1419287   5.337   8.525   8.729 -0.0845 -0.1438  0.3661
    3HTM     S219288   5.162   8.491   8.752 -0.1511 -0.1744 -0.1853
    4TAL    C1519289   5.568   8.413   8.772  0.0147  0.0258  0.1029
    4TAL    C1619290   5.633   8.422   8.907  0.3473 -0.5915  0.3208
    4TAL    C1719291   5.760   8.339   8.929  0.0088  1.2137 -0.2683
    4TAL    C1819292   5.758   8.200   8.867  0.6004 -0.0164 -0.1650
    4TAL    C1919293   5.888   8.123   8.882  0.8714 -0.7092 -0.3598
    4TAL    C2019294   5.888   7.985   8.816  0.2658 -0.3216  0.2949
    5HTM    C2119295   5.373   8.657   8.682  0.3962  0.0860 -0.6519
    5HTM    C2219296   5.477   8.694   8.602  0.2689  0.7133 -0.5326
    5HTM    C2319297   5.467   8.829   8.551 -0.1826  0.8574 -0.0629
    5HTM    C2419298   5.354   8.894   8.593 -0.3999  0.3399  0.1757
    5HTM     S319299   5.253   8.790   8.700 -0.0483 -0.3745 -0.1773
    6TAL    C2519300   5.579   8.898   8.470  0.1528  0.6647  0.6338
    6TAL    C2619301   5.700   8.957   8.550  0.1917  0.0889  0.6239
    6TAL    C2719302   5.805   9.018   8.463 -0.3290  0.4326  0.0270
    6TAL    C2819303   5.903   8.933   8.388 -0.0744 -0.2400  0.8724
    6TAL    C2919304   6.013   9.016   8.316  0.2577  0.2475 -0.1223
    6TAL    C3019305   6.149   8.952   8.308  0.1683  0.6909 -0.0766
    7HTM    C3119306   5.298   9.024   8.564 -0.1064  0.1089 -0.7924
    7HTM    C3219307   5.168   9.054   8.535  0.0281  0.2382 -1.2708
    7HTM    C3319308   5.147   9.191   8.498  0.2556  0.3270 -1.0743
    7HTM    C3419309   5.261   9.267   8.499  0.2946  0.2653 -0.4455
    7HTM     S419310   5.405   9.169   8.547  0.0450  0.0890 -0.0503
    8TAL    C3519311   5.005   9.247   8.489 -0.2255 -0.3380  0.3591
    8TAL    C3619312   4.908   9.151   8.432  0.2268  0.1491 -0.2306
    8TAL    C3719313   4.765   9.198   8.445 -0.0707  0.1606 -0.4808
    8TAL    C3819314   4.669   9.103   8.375  0.4753  0.8349  0.7018
    8TAL    C3919315   4.524   9.124   8.404  0.5453  0.3577  0.0585
    8TAL    C4019316   4.436   9.005   8.393 -0.4342 -0.0755 -0.3855
    9HTM    C4119317   5.283   9.408   8.492 -0.2510 -0.2135  0.3956
    9HTM    C4219318   5.196   9.507   8.457 -0.3645 -0.2167  0.6709
    9HTM    C4319319   5.250   9.640   8.476 -0.3624 -0.2127  0.6361
    9HTM    C4419320   5.377   9.641   8.524 -0.2470 -0.2064  0.3329
    9HTM     S519321   5.440   9.474   8.550 -0.1310 -0.2050  0.0671
   10TAL    C4519322   5.187   9.771   8.441  0.4184  0.5943 -0.3514
   10TAL    C4619323   5.034   9.777   8.446 -0.0672  0.2741  0.8460
   10TAL    C4719324   4.977   9.906   8.393  0.0635 -0.3970  0.8372
   10TAL    C4819325   4.834   9.917   8.444  0.2988 -0.0008  0.2855
   10TAL    C4919326   4.780  10.051   8.415 -0.0034 -0.0237 -0.1592
   10TAL    C5019327   4.642  10.069   8.470  1.2749  0.0676  0.6279
   11HTM    C5119328   5.469   9.749   8.570  0.0095  0.1456 -0.5703
   11HTM    C5219329   5.602   9.723   8.586  0.0818  0.2770 -0.9513
   11HTM    C5319330   5.677   9.834   8.641  0.0513  0.2057 -0.7653
   11HTM    C5419331   5.600   9.944   8.667 -0.0432  0.0199 -0.2424
   11HTM     S619332   5.427   9.916   8.624 -0.1023 -0.0802  0.0584
   12TAL    C5519333   5.826   9.815   8.659 -0.6128 -0.2587 -0.0472
   12TAL    C5619334   5.904   9.765   8.537 -0.0727 -0.1468 -0.1656
   12TAL    C5719335   6.058   9.761   8.546  0.0187 -1.6195 -0.4357
   12TAL    C5819336   6.134   9.890   8.519 -0.1966  0.2354 -0.1255
   12TAL    C5919337   6.122  10.004   8.624 -0.3144 -0.3544 -0.0611
   12TAL    C6019338   6.217   9.978   8.745  0.2912  0.3855  0.0013
   13HTM    C6119339   5.637  10.075   8.725 -0.1693  0.5195 -0.5472
   13HTM    C6219340   5.550  10.178   8.751  0.0660  0.6673 -0.3400
   13HTM    C6319341   5.610  10.288   8.822  0.2477  0.2686  0.1221
   13HTM    C6419342   5.742  10.268   8.852  0.1507 -0.1834  0.2662
   13HTM     S719343   5.801  10.109   8.791 -0.1800 -0.1400 -0.1728
   14TAL    C6519344   5.532  10.416   8.857  0.3035 -0.0801 -0.6349
   14TAL    C6619345   5.392  10.440   8.810  0.1235 -0.2456 -0.4006
   14TAL    C6719346   5.349  10.583   8.847 -0.2401  0.0553  0.5036
   14TAL    C6819347   5.219  10.623   8.784  0.4535  0.8658 -0.1502
   14TAL    C6919348   5.165  10.755   8.837 -0.1478  0.7646  0.0156
   14TAL    C7019349   5.049  10.789   8.746  0.2744 -0.0612 -0.1358
   15HTM    C7119350   5.834  10.362   8.920  0.3232  0.3365 -0.2634
   15HTM    C7219351   5.803  10.464   9.004  0.5269  0.6324 -0.5436
   15HTM    C7319352   5.918  10.539   9.049  0.7074  0.3386 -0.5112
   15HTM    C7419353   6.036  10.494   8.999  0.6410 -0.1814 -0.2048
   15HTM     S819354   6.012  10.352   8.890  0.3431 -0.3414  0.0680
   16TAL    C7519355   5.910  10.661   9.135 -0.0701  0.0006 -0.4332
   16TAL    C7619356   5.885  10.630   9.285  0.4499 -0.1516 -0.7161
   16TAL    C7719357   5.871  10.749   9.378  0.2545  0.4735  0.2643
   16TAL    C7819358   5.966  10.867   9.361  0.3226 -0.0716 -0.5750
   16TAL    C7919359   6.110  10.839   9.385 -0.8529  0.2039 -0.0155
   16TAL    C8019360   6.198  10.929   9.302  0.4214  0.4570 -0.7115
   17HTM    C8119361   6.172  10.552   8.994 -0.2333  0.1825 -0.1580
   17HTM    C8219362   6.205  10.684   8.992 -0.1471  0.1577 -0.4670
   17HTM    C8319363   6.347  10.709   8.994 -0.1321  0.0693 -0.4902
   17HTM    C8419364   6.422  10.595   8.996 -0.2061  0.0266 -0.1989
   17HTM     S919365   6.319  10.447   8.998 -0.3018  0.0953  0.1299
   18TAL    C8519366   6.396  10.852   9.001  0.5174 -0.8860 -0.2553
   18TAL    C8619367   6.385  10.942   8.876  0.3843  0.1872  0.4830
   18TAL    C8719368   6.484  10.935   8.755 -0.1672 -0.0786  0.0820
   18TAL    C8819369   6.453  11.038   8.644  0.4162 -0.1888  0.6598
   18TAL    C8919370   6.496  11.000   8.503 -1.1709 -0.2139 -0.0836
   18TAL    C9019371   6.511  11.110   8.397  0.5235  0.2947 -0.0898
   19HTM    C9119372   6.561  10.574   9.028  0.2964 -0.6375 -0.1944
   19HTM    C9219373   6.616  10.451   9.048  0.4609 -0.4570  0.4721
   19HTM    C9319374   6.753  10.456   9.093  0.2782 -0.0262  0.9975
   19HTM    C9419375   6.802  10.583   9.107 -0.0257  0.1218  0.7317
   19HTM    S1019376   6.678  10.707   9.064 -0.1052 -0.2745 -0.2103
   20TAL    C9519377   6.828  10.328   9.121 -0.1946  0.2132 -0.6643
   20TAL    C9619378   6.800  10.252   9.253 -0.4495 -0.1028 -0.3703
   20TAL    C9719379   6.840  10.310   9.393 -0.3003  0.3819  0.4624
   20TAL    C9819380   6.769  10.438   9.434 -0.1326 -0.6654  0.0091
   20TAL    C9919381   6.823  10.495   9.565 -0.4561 -0.4692 -0.1925
   20TAL   C10019382   6.750  10.622   9.608 -0.2523 -0.0423  0.6407
   21HTM   C10119383   6.933  10.638   9.155  0.1091  0.5327  0.2365
   21HTM   C10219384   6.947  10.746   9.236  0.5538  0.5406  0.1512
   21HTM   C10319385   7.078  10.758   9.294  0.6578  0.1457  0.0028
   21HTM   C10419386   7.164  10.659   9.257  0.2915 -0.1632 -0.0249
   21HTM    S1119387   7.085  10.542   9.145 -0.2164  0.0219  0.1354
   22TAL   C10519388   7.131  10.891   9.374 -0.1239  0.0873 -0.6286
   22TAL   C10619389   7.057  11.031   9.376  0.0184  0.1499 -0.2441
   22TAL   C10719390   6.918  11.030   9.447  0.1763 -0.1026 -0.3573
   22TAL   C10819391   6.889  11.153   9.534  0.3136 -0.1815  0.3428
   22TAL   C10919392   6.878  11.294   9.476 -0.9324 -0.0336  0.2461
   22TAL   C11019393   6.758  11.365   9.523 -0.5915  0.2183 -0.0636
   23HTM   C11119394   7.302  10.632   9.288  0.0804  0.7109 -0.2967
   23HTM   C11219395   7.372  10.657   9.402  0.2356  0.8932 -0.4309
   23HTM   C11319396   7.513  10.632   9.390  0.1743  0.5718 -0.4913
   23HTM   C11419397   7.551  10.588   9.266 -0.0276  0.1445 -0.4031
   23HTM    S1219398   7.409  10.575   9.155 -0.1569  0.1146 -0.2357
   24TAL   C11519399   7.602  10.669   9.502  0.0037 -0.0690  0.3227
   24TAL   C11619400   7.560  10.643   9.648 -0.0591 -0.4088 -0.3316
   24TAL   C11719401   7.553  10.495   9.679  0.2762 -0.4296  0.0093
   24TAL   C11819402   7.687  10.427   9.690 -0.3117 -0.0631  0.4202
   24TAL   C11919403   7.765  10.467   9.819  0.3216 -0.4302  1.0579
   24TAL   C12019404   7.915  10.446   9.787 -0.8534  0.3735  0.0178
   25HTM   C12119405   7.676  10.568   9.203 -0.1427 -0.4320  0.4461
   25HTM   C12219406   7.715  10.615   9.082 -0.1032  0.2127  0.7072
   25HTM   C12319407   7.845  10.569   9.040 -0.0041  0.5919  0.5930
   25HTM   C12419408   7.905  10.486   9.130  0.0329  0.2362  0.2449
   25HTM    S1319409   7.801  10.460   9.276 -0.0563 -0.6117  0.0326
   26TAL   C12519410   7.897  10.591   8.900 -0.2306  0.2230  0.7390
   26TAL   C12619411   7.941  10.734   8.875  0.2138 -1.3375  0.2294
   26TAL   C12719412   7.996  10.733   8.728  0.0173  0.5341 -0.1758
   26TAL   C12819413   8.037  10.867   8.661  0.3450  0.4488  0.2286
   26TAL   C12919414   8.148  10.938   8.743  0.9934  0.7028 -1.0268
   26TAL   C13019415   8.197  11.063   8.677  0.0205 -0.5274 -0.2204
   27HTM   C13119416   8.029  10.414   9.122 -0.1112  0.4853 -0.1368
   27HTM   C13219417   8.155  10.455   9.152 -0.0997  0.6580 -0.4129
   27HTM   C13319418   8.257  10.362   9.111 -0.0916  0.5947 -0.2540
   27HTM   C13419419   8.209  10.251   9.049 -0.0982  0.3740  0.1432
   27HTM    S1419420   8.029  10.255   9.038 -0.1140  0.2275  0.3490
   28TAL   C13519421   8.407  10.387   9.146 -0.2655  0.0842 -0.8987
   28TAL   C13619422   8.440  10.393   9.299  0.3922  0.2987 -0.2441
   28TAL   C13719423   8.411  10.284   9.396 -0.4176  0.0809 -0.1925
   28TAL   C13819424   8.272  10.246   9.422 -0.2684 -0.2829  0.3897
   28TAL   C13919425   8.177  10.344   9.481 -0.3999 -0.1732 -0.5342
   28TAL   C14019426   8.048  10.260   9.504  0.1315 -0.4157 -0.5859
   29HTM   C14119427   8.269  10.137   8.986 -0.3661 -0.0645 -0.5834
   29HTM   C14219428   8.340  10.130   8.870 -0.1650 -0.2738 -0.4492
   29HTM   C14319429   8.375   9.996   8.831  0.3152 -0.3093  0.1020
   29HTM   C14419430   8.331   9.900   8.918  0.4803 -0.1268  0.3871
   29HTM    S1519431   8.241   9.973   9.056  0.0388  0.1057 -0.0199
   30TAL   C14519432   8.446   9.971   8.698  0.7907 -0.1696 -0.3146
   30TAL   C14619433   8.584  10.036   8.687 -0.2107  0.0094  0.3181
   30TAL   C14719434   8.647  10.023   8.551  0.5631  0.4017  0.4265
   30TAL   C14819435   8.575  10.098   8.440 -0.3004  0.4479  0.3035
   30TAL   C14919436   8.651  10.091   8.305  0.2389 -0.1247  0.3121
   30TAL   C15019437   8.588  10.177   8.194  0.2715  1.2058 -0.1967
   31HTM   C15119438   8.343   9.759   8.915  0.0515 -0.1099  0.0218
   31HTM   C15219439   8.252   9.668   8.959  0.1345 -0.1214  0.1717
   31HTM   C15319440   8.301   9.532   8.959  0.1788 -0.1054  0.1683
   31HTM   C15419441   8.430   9.521   8.915  0.1291 -0.0817  0.0155
   31HTM    S1619442   8.500   9.681   8.870  0.0226 -0.0778 -0.1380
   32TAL   C15519443   8.215   9.422   9.013 -0.4642 -0.1438  0.1778
   32TAL   C15619444   8.096   9.390   8.934 -0.0254 -0.3885  1.2078
   32TAL   C15719445   8.000   9.280   8.988 -0.2960  0.5776 -0.3161
   32TAL   C15819446   8.050   9.140   9.020 -0.0176  0.0432 -0.8386
   32TAL   C15919447   8.122   9.076   8.908  0.3128  0.8028 -0.2865
   32TAL   C16019448   8.208   8.957   8.955  0.0884  0.6916  0.0666
   33HTM   C16119449   8.522   9.404   8.907  0.3177 -0.1105  0.1590
   33HTM   C16219450   8.648   9.407   8.854  0.3557 -0.2836  0.2394
   33HTM   C16319451   8.709   9.277   8.845  0.0710 -0.4035  0.0124
   33HTM   C16419452   8.631   9.176   8.891 -0.1834 -0.3218 -0.2425
   33HTM    S1719453   8.472   9.236   8.949 -0.0834 -0.0852 -0.2140
   34TAL   C16519454   8.851   9.264   8.782  0.6006 -0.1058 -0.1839
   34TAL   C16619455   8.914   9.379   8.693 -0.1218 -0.0742 -0.8150
   34TAL   C16719456   8.853   9.404   8.561  0.2645  0.4829 -0.6661
   34TAL   C16819457   8.911   9.518   8.487 -0.4270 -0.2175 -0.3246
   34TAL   C16919458   8.853   9.654   8.527 -0.1234 -0.2491 -0.0845
   34TAL   C17019459   8.918   9.777   8.452 -0.2590  0.4832 -0.0516
   35HTM   C17119460   8.653   9.031   8.890 -0.2543 -0.1110 -0.1724
   35HTM   C17219461   8.713   8.951   8.797 -0.2575 -0.1783 -0.1178
   35HTM   C17319462   8.687   8.811   8.816 -0.0362 -0.1850  0.1431
   35HTM   C17419463   8.608   8.783   8.923  0.1360 -0.1223  0.2868
   35HTM    S1819464   8.559   8.934   9.009  0.0306 -0.0498  0.1023
   36TAL   C17519465   8.754   8.706   8.719  0.8624 -0.0393 -0.3139
   36TAL   C17619466   8.906   8.724   8.690 -0.1044  0.4600 -0.6451
   36TAL   C17719467   8.999   8.737   8.813  0.2233  0.1922  0.0073
   36TAL   C17819468   9.142   8.765   8.787 -0.2062 -0.2778 -0.4086
   36TAL   C17919469   9.174   8.899   8.719  0.3879  0.1585  0.8145
   36TAL   C18019470   9.126   9.032   8.777 -0.1342  0.4110 -0.1250
   37HTM   C18119471   8.562   8.656   8.984 -0.0094 -0.3436 -0.0751
   37HTM   C18219472   8.624   8.534   8.975 -0.1130 -0.4268  0.3152
   37HTM   C18319473   8.574   8.437   9.069 -0.3910 -0.1678  0.4383
   37HTM   C18419474   8.474   8.484   9.149 -0.4991  0.1129  0.1419
   37HTM    S1919475   8.435   8.656   9.112 -0.2561  0.0715 -0.3193
   38TAL   C18519476   8.622   8.295   9.061  0.3280  0.1306  0.5627
   38TAL   C18619477   8.754   8.246   9.119  0.5883 -0.4551  0.1642
   38TAL   C18719478   8.873   8.332   9.089  0.1264 -0.0080  0.7291
   38TAL   C18819479   8.989   8.299   9.189 -0.5197 -0.0979  0.7599
   38TAL   C18919480   9.099   8.396   9.181  0.6765 -0.9176 -0.2679
   38TAL   C19019481   9.224   8.370   9.266 -0.2765 -0.4192 -1.1674
   39HTM   C19119482   8.410   8.417   9.259  0.0025 -0.5938 -0.3562
   39HTM   C19219483   8.330   8.485   9.347  0.0200 -0.2785 -0.5817
   39HTM   C19319484   8.256   8.399   9.435 -0.0029  0.0367 -0.2939
   39HTM   C19419485   8.278   8.266   9.415 -0.0383 -0.0389  0.1511
   39HTM    S2019486   8.397   8.239   9.282 -0.0446 -0.5167  0.2418
   40TAL   C19519487   8.167   8.467   9.535 -0.0900 -0.9698 -0.5625
   40TAL   C19619488   8.247   8.518   9.658 -0.4285  0.2197 -0.4290
   40TAL   C19719489   8.157   8.593   9.760  0.1567 -0.1657 -0.5009
   40TAL   C19819490   8.022   8.532   9.804  0.5901  0.1455  0.4065
   40TAL   C19919491   8.020   8.392   9.870 -0.8725 -0.2417 -0.0548
   40TAL   C20019492   7.885   8.338   9.891 -0.0140  0.2147  0.0194
   41HTM   C20119493   8.223   8.154   9.484 -0.1470  0.0661 -0.1402
   41HTM   C20219494   8.204   8.134   9.617 -0.2756  0.1259 -0.1494
   41HTM   C20319495   8.155   8.003   9.650 -0.3557  0.1574 -0.1414
   41HTM   C20419496   8.137   7.922   9.542 -0.2876  0.1216 -0.1262
   41HTM    S2119497   8.180   8.007   9.388 -0.1156  0.0447 -0.1206
   42TAL   C20519498   8.102   7.966   9.786 -0.3660  0.6185  0.3795
   42TAL   C20619499   8.181   7.982   9.916 -0.2350  0.3280 -0.0917
   42TAL   C20719500   8.321   7.922   9.903  0.4027  0.1454  0.0267
   42TAL   C20819501   8.410   7.944  10.026 -0.3485 -0.4249 -0.4302
   42TAL   C20919502   8.547   7.884  10.011 -0.7832  0.0160  0.0354
   42TAL   C21019503   8.616   7.857  10.147 -0.2117  0.7427  0.5440
   43HTM   C21119504   8.112   7.779   9.544  0.2463  0.4130 -0.2923
   43HTM   C21219505   8.012   7.715   9.477  0.1502  0.5136 -0.2451
   43HTM   C21319506   8.011   7.572   9.497  0.0157  0.5155 -0.2433
   43HTM   C21419507   8.109   7.528   9.580  0.0085  0.4160 -0.2890
   43HTM    S2219508   8.213   7.663   9.639  0.1738  0.3118 -0.3384
   44TAL   C21519509   7.917   7.483   9.415 -0.3321 -0.2191  0.1464
   44TAL   C21619510   7.775   7.455   9.456  0.3287 -0.8869 -0.2681
   44TAL   C21719511   7.753   7.384   9.588  0.1863  0.7039  0.0122
   44TAL   C21819512   7.611   7.351   9.624  0.3016 -0.2387  0.1014
   44TAL   C21919513   7.610   7.289   9.758 -0.5489  0.5613  0.0964
   44TAL   C22019514   7.473   7.233   9.800 -0.3881 -0.0474 -0.3813
   45HTM   C22119515   8.151   7.396   9.631  0.1653 -0.2049  0.0241
   45HTM   C22219516   8.099   7.270   9.623  0.1750 -0.2124  0.0802
   45HTM   C22319517   8.187   7.168   9.675  0.1740 -0.1798  0.1467
   45HTM   C22419518   8.305   7.216   9.723  0.1622 -0.1477  0.1413
   45HTM    S2319519   8.315   7.395   9.705  0.1529 -0.1556  0.0511
   46TAL   C22519520   8.151   7.020   9.692  0.1630  0.7987  0.2176
   46TAL   C22619521   8.022   6.964   9.628  0.8450 -0.6288 -0.1352
   46TAL   C22719522   7.972   6.818   9.628  0.3369  0.7939 -1.0638
   46TAL   C22819523   8.084   6.715   9.614 -0.4918  0.4984  0.0343
   46TAL   C22919524   8.023   6.578   9.621  0.5894  0.7109 -0.1601
   46TAL   C23019525   8.115   6.463   9.585 -0.3931 -0.1403  0.1800
   47HTM   C23119526   8.425   7.151   9.779 -0.3226  0.2363  0.2951
   47HTM   C23219527   8.483   7.030   9.756 -0.6003  0.0734  0.4509
   47HTM   C23319528   8.615   7.017   9.811 -0.5498 -0.0849  0.2945
   47HTM   C23419529   8.658   7.128   9.877 -0.2329 -0.0427  0.0196
   47HTM    S2419530   8.534   7.259   9.874  0.0269  0.2025 -0.0639
   48TAL   C23519531   8.692   6.886   9.815 -0.5518 -0.3525  0.8653
   48TAL   C23619532   8.844   6.883   9.823  0.4995 -0.0115 -0.3277
   48TAL   C23719533   8.898   6.743   9.853  0.3881 -0.0860  0.3599
   48TAL   C23819534   9.047   6.752   9.898  0.0939 -0.0758 -0.5269
   48TAL   C23919535   9.108   6.612   9.915  0.6586 -0.2860 -0.1139
   48TAL   C24019536   9.241   6.625   9.984 -0.5930  0.2481  0.4156
    1HTM     C119537   5.527   7.889   8.930 -0.2343 -0.1643 -0.0226
    1HTM     C219538   5.429   7.795   8.923 -0.4542  0.0637 -0.0176
    1HTM     C319539   5.311   7.829   8.998 -0.3819  0.3495 -0.0329
    1HTM     C419540   5.319   7.949   9.062 -0.1072  0.3397 -0.0492
    1HTM     S119541   5.478   8.030   9.032  0.0831 -0.0336 -0.0461
    2TAL     C519542   5.189   7.727   9.011 -0.1626  0.5023 -0.0426
    2TAL     C619543   5.181   7.597   8.930  0.3263 -0.1706  0.0819
    2TAL     C719544   5.069   7.506   8.972  0.0901  0.0684  0.4213
    2TAL     C819545   5.054   7.373   8.901 -0.2917 -0.0516  1.3911
    2TAL     C919546   5.180   7.290   8.924 -0.0902 -0.0222  0.2548
    2TAL    C1019547   5.168   7.153   8.851  0.7271 -0.1000  0.0168
    3HTM    C1119548   5.240   8.020   9.156  0.0861 -0.0312  0.1419
    3HTM    C1219549   5.249   8.152   9.187 -0.0682 -0.0348  0.2069
    3HTM    C1319550   5.131   8.205   9.249 -0.1652 -0.1817  0.1500
    3HTM    C1419551   5.032   8.114   9.267 -0.0845 -0.2891  0.0416
    3HTM     S219552   5.080   7.951   9.205  0.1214 -0.2137  0.0027
    4TAL    C1519553   5.131   8.350   9.293 -0.1833 -1.0040  0.3927
    4TAL    C1619554   5.241   8.454   9.291  0.3007  0.0719  0.9807
    4TAL    C1719555   5.278   8.507   9.154 -0.2533  0.2430 -0.0992
    4TAL    C1819556   5.389   8.614   9.141  0.6704  0.1151  0.3468
    4TAL    C1919557   5.514   8.582   9.221  0.8807 -0.1174 -0.0742
    4TAL    C2019558   5.615   8.698   9.211  0.4576  0.2388 -0.4477
    5HTM    C2119559   4.891   8.131   9.292  0.1482  0.1271  0.2436
    5HTM    C2219560   4.786   8.087   9.217  0.2775  0.6647 -0.2601
    5HTM    C2319561   4.658   8.133   9.265  0.2394  0.8545 -0.5406
    5HTM    C2419562   4.666   8.211   9.376  0.0808  0.4627 -0.2508
    5HTM     S319563   4.837   8.234   9.430 -0.0335 -0.1824  0.4040
    6TAL    C2519564   4.527   8.093   9.190  0.1366  0.1706  0.0412
    6TAL    C2619565   4.540   8.049   9.049 -0.6720  0.7677 -0.4408
    6TAL    C2719566   4.432   7.969   8.986  0.0886  0.5491 -0.4387
    6TAL    C2819567   4.413   7.833   9.053  0.3367  0.5769 -0.0576
    6TAL    C2919568   4.290   7.761   9.000  0.3095 -0.2870  0.2361
    6TAL    C3019569   4.282   7.622   9.068 -0.5224 -0.0099 -0.1711
    7HTM    C3119570   4.562   8.261   9.455 -0.1872 -0.2153  0.0989
    7HTM    C3219571   4.510   8.215   9.572 -0.6647 -0.3533 -0.1654
    7HTM    C3319572   4.382   8.272   9.605 -0.7141 -0.2532 -0.5303
    7HTM    C3419573   4.336   8.361   9.512 -0.2744 -0.0386 -0.5442
    7HTM     S419574   4.453   8.381   9.376  0.2403  0.0536 -0.0941
    8TAL    C3519575   4.310   8.215   9.728  0.2724  0.5369 -0.3049
    8TAL    C3619576   4.240   8.318   9.816  0.0300  0.1082 -0.4461
    8TAL    C3719577   4.162   8.265   9.939  0.6532 -0.2643 -0.0188
    8TAL    C3819578   4.012   8.313   9.969 -0.2963  0.0541 -0.3440
    8TAL    C3919579   3.975   8.453   9.938 -0.3522 -0.1145 -0.1749
    8TAL    C4019580   3.835   8.501   9.973  0.1223  0.1906 -0.1659
    9HTM    C4119581   4.214   8.436   9.503  0.1421 -0.2250 -0.0063
    9HTM    C4219582   4.210   8.572   9.497  0.1979 -0.2398 -0.4713
    9HTM    C4319583   4.079   8.626   9.476  0.2387 -0.2627 -0.7806
    9HTM    C4419584   3.982   8.531   9.464  0.2144 -0.2662 -0.5516
    9HTM     S519585   4.049   8.365   9.480  0.1371 -0.2401  0.0775
   10TAL    C4519586   4.047   8.776   9.466  0.5039  0.3045 -0.7016
   10TAL    C4619587   4.158   8.878   9.498 -0.0663 -0.3279  0.4869
   10TAL    C4719588   4.235   8.878   9.633  0.1429 -0.6726 -0.2318
   10TAL    C4819589   4.157   8.913   9.754  0.2103  0.4440 -0.8036
   10TAL    C4919590   4.262   8.967   9.864  0.1309 -0.0714 -0.0283
   10TAL    C5019591   4.194   9.032   9.981  0.7719 -0.3582 -0.2941
   11HTM    C5119592   3.836   8.549   9.455 -0.1972 -0.1725  0.3866
   11HTM    C5219593   3.759   8.618   9.544 -0.2561 -0.2546  0.3997
   11HTM    C5319594   3.617   8.599   9.525 -0.2460 -0.1616  0.2252
   11HTM    C5419595   3.586   8.514   9.422 -0.1797 -0.0080  0.0790
   11HTM     S619596   3.735   8.452   9.341 -0.1240  0.0295  0.1510
   12TAL    C5519597   3.527   8.661   9.625 -0.3173 -0.1207  0.0157
   12TAL    C5619598   3.557   8.639   9.776 -0.2155  0.1859  0.2173
   12TAL    C5719599   3.469   8.702   9.886 -0.6726 -0.1375 -0.4806
   12TAL    C5819600   3.335   8.644   9.915  0.1280 -0.0437 -0.2051
   12TAL    C5919601   3.300   8.498   9.963  0.0937  0.1780 -0.2110
   12TAL    C6019602   3.378   8.457  10.087 -0.2782 -0.6691  0.1268
   13HTM    C6119603   3.461   8.447   9.389 -0.3976 -0.2902  0.2131
   13HTM    C6219604   3.446   8.313   9.370 -0.4319 -0.2346 -0.1586
   13HTM    C6319605   3.309   8.272   9.349 -0.4106 -0.1068 -0.5485
   13HTM    C6419606   3.220   8.375   9.351 -0.3600 -0.0652 -0.4740
   13HTM     S719607   3.302   8.533   9.381 -0.3351 -0.1846  0.0988
   14TAL    C6519608   3.277   8.126   9.326 -0.0535 -0.2762 -0.4286
   14TAL    C6619609   3.284   8.034   9.448 -0.1642 -0.0800 -0.1046
   14TAL    C6719610   3.229   7.902   9.396  0.8563 -0.0071 -0.5361
   14TAL    C6819611   3.196   7.808   9.506 -0.0250  0.0461 -0.4805
   14TAL    C6919612   3.109   7.687   9.452  0.0142 -0.0026 -0.4112
   14TAL    C7019613   2.959   7.723   9.451 -0.4196 -0.2589  0.3667
   15HTM    C7119614   3.071   8.374   9.331  0.3026 -0.2410 -0.1015
   15HTM    C7219615   2.989   8.472   9.285  0.4190 -0.1645 -0.1446
   15HTM    C7319616   2.849   8.437   9.285  0.3839 -0.0277 -0.2019
   15HTM    C7419617   2.825   8.311   9.331  0.2408 -0.0001 -0.2025
   15HTM     S819618   2.977   8.227   9.378  0.1383 -0.1461 -0.1302
   16TAL    C7519619   2.752   8.539   9.231  0.1059  0.5704  0.5356
   16TAL    C7619620   2.704   8.537   9.087 -0.3734  0.1532  0.4276
   16TAL    C7719621   2.605   8.653   9.061 -0.5306  0.2074 -0.5150
   16TAL    C7819622   2.491   8.616   8.965  0.0363  0.1810 -0.8814
   16TAL    C7919623   2.395   8.497   9.017  0.5717 -0.1665 -0.2093
   16TAL    C8019624   2.276   8.469   8.934 -0.0167  0.2621  0.6082
   17HTM    C8119625   2.699   8.233   9.336 -0.1916 -0.2025 -0.2263
   17HTM    C8219626   2.688   8.100   9.359 -0.3121 -0.2012 -0.2744
   17HTM    C8319627   2.552   8.051   9.355 -0.3802 -0.0339 -0.0482
   17HTM    C8419628   2.460   8.148   9.329 -0.3118  0.0924  0.1725
   17HTM     S919629   2.537   8.309   9.307 -0.1545  0.0095  0.1112
   18TAL    C8519630   2.527   7.908   9.381  0.2549 -0.4936  0.1420
   18TAL    C8619631   2.527   7.817   9.260 -0.5587 -0.6699 -0.2020
   18TAL    C8719632   2.522   7.667   9.288 -0.1134 -0.4562  0.5496
   18TAL    C8819633   2.653   7.607   9.335 -0.3516  0.5397 -0.7680
   18TAL    C8919634   2.629   7.478   9.409  0.0968 -0.1998 -0.2474
   18TAL    C9019635   2.753   7.402   9.464 -0.7506  0.1172  0.3488
   19HTM    C9119636   2.312   8.152   9.311  0.1282 -0.3934 -0.3806
   19HTM    C9219637   2.232   8.237   9.241  0.3103 -0.5479 -0.7837
   19HTM    C9319638   2.091   8.211   9.258  0.2561 -0.2379 -0.7451
   19HTM    C9419639   2.064   8.106   9.340  0.0325  0.1534 -0.3127
   19HTM    S1019640   2.216   8.031   9.404 -0.1281  0.1608  0.0825
   20TAL    C9519641   1.996   8.302   9.187  0.1247  0.0416 -0.0537
   20TAL    C9619642   1.963   8.258   9.043  0.1483  0.3220  0.0135
   20TAL    C9719643   1.868   8.357   8.970  0.3573 -0.4957  0.5260
   20TAL    C9819644   1.731   8.404   9.031 -0.0275  0.2098 -0.0521
   20TAL    C9919645   1.637   8.306   9.097 -0.4807  0.2650  0.2720
   20TAL   C10019646   1.515   8.378   9.142  0.6454 -0.3423  0.6624
   21HTM   C10119647   1.942   8.056   9.398 -0.0756 -0.4033 -0.2226
   21HTM   C10219648   1.918   7.931   9.447 -0.1287 -0.2801  0.0655
   21HTM   C10319649   1.781   7.910   9.488 -0.0636 -0.0217  0.4212
   21HTM   C10419650   1.702   8.019   9.469  0.0393  0.0511  0.4044
   21HTM    S1119651   1.793   8.157   9.398  0.0620 -0.2024 -0.0656
   22TAL   C10519652   1.735   7.786   9.552 -0.8635 -0.4434 -0.0855
   22TAL   C10619653   1.807   7.651   9.533  0.8666 -0.1016 -0.1903
   22TAL   C10719654   1.722   7.538   9.596 -0.3047  1.0613  0.3702
   22TAL   C10819655   1.779   7.398   9.581 -0.5031 -0.0080 -0.1136
   22TAL   C10919656   1.697   7.281   9.651 -0.3395 -0.0097  0.3829
   22TAL   C11019657   1.772   7.150   9.657  0.3123  0.1118  0.3159
   23HTM   C11119658   1.564   8.050   9.507  0.1485  0.0479 -0.0907
   23HTM   C11219659   1.507   8.173   9.495  0.1737  0.0830  0.1370
   23HTM   C11319660   1.366   8.176   9.526  0.2432  0.1178  0.4534
   23HTM   C11419661   1.316   8.054   9.561  0.2709  0.1096  0.4669
   23HTM    S1219662   1.443   7.926   9.558  0.2111  0.0574  0.0780
   24TAL   C11519663   1.284   8.303   9.504 -0.2386 -0.5668 -0.0600
   24TAL   C11619664   1.272   8.393   9.627 -0.3803 -0.2348 -0.6095
   24TAL   C11719665   1.154   8.488   9.608  0.2998  0.0880  0.8445
   24TAL   C11819666   1.148   8.592   9.496 -0.2132 -0.0916 -0.3671
   24TAL   C11919667   1.245   8.714   9.529 -0.1110  0.1975  0.8807
   24TAL   C12019668   1.253   8.816   9.415 -0.0011  0.1878  0.5092
   25HTM   C12119669   1.175   8.013   9.584 -0.4094 -0.0528  0.0328
   25HTM   C12219670   1.116   7.901   9.533 -0.4629 -0.2477  0.5128
   25HTM   C12319671   0.981   7.881   9.578 -0.3563 -0.1767  0.8678
   25HTM   C12419672   0.937   7.977   9.663 -0.2214  0.0717  0.6585
   25HTM    S1319673   1.064   8.102   9.694 -0.2186  0.2367 -0.0083
   26TAL   C12519674   0.889   7.782   9.504 -0.2447  0.4416  0.2805
   26TAL   C12619675   0.783   7.703   9.581 -0.9374 -0.1465  0.3244
   26TAL   C12719676   0.690   7.628   9.487 -0.4532  0.4832 -0.0342
   26TAL   C12819677   0.567   7.575   9.561  0.1712 -0.5266  0.1989
   26TAL   C12919678   0.458   7.670   9.613 -0.5027  0.3305  0.3295
   26TAL   C13019679   0.338   7.588   9.651  0.0046 -0.5878  0.6402
   27HTM   C13119680   0.813   7.998   9.731 -0.0867  0.0654 -0.0155
   27HTM   C13219681   0.783   8.010   9.863 -0.0443  0.2246 -0.0200
   27HTM   C13319682   0.646   8.045   9.888 -0.0586  0.1655 -0.0156
   27HTM   C13419683   0.571   8.060   9.775 -0.1119 -0.0380 -0.0076
   27HTM    S1419684   0.670   8.030   9.627 -0.1484 -0.1732 -0.0052
   28TAL   C13519685   0.593   8.063  10.038  0.2986 -0.1214  0.1480
   28TAL   C13619686   0.561   7.931  10.102  0.2109 -0.3978  0.4416
   28TAL   C13719687   0.478   7.935  10.232  0.4033  0.1946 -0.7282
   28TAL   C13819688   0.395   7.804  10.267  0.4635  0.2653 -0.6226
   28TAL   C13919689   0.299   7.749  10.158 -0.5104  0.1186  0.6972
   28TAL   C14019690   0.231   7.618  10.180 -0.1577  0.1290  0.2085
   29HTM   C14119691   0.423   8.084   9.766 -0.2816 -0.1173  0.1284
   29HTM   C14219692   0.327   8.011   9.829 -0.5145  0.1550  0.0911
   29HTM   C14319693   0.193   8.055   9.801 -0.3721  0.6561  0.1927
   29HTM   C14419694   0.187   8.162   9.717 -0.0307  0.7656  0.3075
   29HTM    S1519695   0.352   8.216   9.666  0.1389  0.2411  0.2961
   30TAL   C14519696   0.074   7.982   9.864 -0.3785 -0.3604 -0.2062
   30TAL   C14619697   0.056   7.835   9.824  0.4272  0.2627 -0.1466
   30TAL   C14719698  -0.034   7.777   9.927 -0.0306  1.0560  0.0073
   30TAL   C14819699  -0.071   7.628   9.925 -0.2572 -0.2386  0.6185
   30TAL   C14919700  -0.136   7.574  10.042  0.0258 -0.1947 -0.1454
   30TAL   C15019701  -0.159   7.425  10.042 -0.0547 -0.4104  0.8450
   31HTM   C15119702   0.066   8.235   9.664 -0.0772 -0.1283 -0.3812
   31HTM   C15219703  -0.060   8.185   9.654 -0.1020 -0.0563 -0.4300
   31HTM   C15319704  -0.153   8.275   9.589 -0.0625  0.0596 -0.3273
   31HTM   C15419705  -0.097   8.393   9.551 -0.0062  0.0752 -0.2001
   31HTM    S1619706   0.078   8.400   9.592 -0.0010 -0.0552 -0.2003
   32TAL   C15519707  -0.304   8.239   9.576  0.4512  0.0189 -0.0008
   32TAL   C15619708  -0.328   8.094   9.536  0.1516  0.7688  0.0713
   32TAL   C15719709  -0.441   8.039   9.622 -0.3282  0.2102 -0.8677
   32TAL   C15819710  -0.470   7.885   9.606 -0.6038  0.2855  0.0801
   32TAL   C15919711  -0.351   7.783   9.621  0.0503  0.2343  0.2750
   32TAL   C16019712  -0.387   7.643   9.666  0.2243 -0.1281  0.4725
   33HTM   C16119713  -0.149   8.510   9.483  0.3105  0.4571  0.1219
   33HTM   C16219714  -0.097   8.570   9.373  0.4196  0.7081  0.3085
   33HTM   C16319715  -0.174   8.683   9.326  0.2666  0.5922  0.2764
   33HTM   C16419716  -0.284   8.709   9.402  0.0406  0.2522  0.0652
   33HTM    S1719717  -0.300   8.592   9.538  0.0033  0.0516 -0.1108
   34TAL   C16519718  -0.140   8.768   9.211 -0.0048  0.3464 -0.0907
   34TAL   C16619719   0.007   8.829   9.214 -1.0839  0.0658 -0.6213
   34TAL   C16719720   0.044   8.953   9.126 -0.6400 -0.9290 -0.4178
   34TAL   C16819721  -0.055   9.060   9.157  0.0128  0.8392  0.4929
   34TAL   C16919722  -0.015   9.199   9.113  0.0763  0.3475  0.6024
   34TAL   C17019723  -0.108   9.302   9.168 -0.2551 -0.6424 -0.3399
   35HTM   C17119724  -0.385   8.811   9.397 -0.2519 -0.1592 -0.0278
   35HTM   C17219725  -0.517   8.791   9.422 -0.2699  0.2208  0.1894
   35HTM   C17319726  -0.594   8.912   9.426  0.0734  0.4396  0.2664
   35HTM   C17419727  -0.521   9.025   9.403  0.3537  0.2267  0.1079
   35HTM    S1819728  -0.347   8.986   9.375  0.2043 -0.2706 -0.1529
   36TAL   C17519729  -0.738   8.906   9.468 -0.3918  0.1365  0.0004
   36TAL   C17619730  -0.820   8.900   9.345 -0.6043  0.4315 -0.0561
   36TAL   C17719731  -0.968   8.901   9.378  0.2243 -0.7482  0.2410
   36TAL   C17819732  -1.028   8.785   9.469  0.3678 -0.1387 -0.1139
   36TAL   C17919733  -1.165   8.837   9.502 -0.2355 -0.1762 -0.0044
   36TAL   C18019734  -1.242   8.734   9.594 -0.3784 -1.0457 -0.3877
   37HTM   C18119735  -0.554   9.168   9.404 -0.0223 -0.2185 -0.2012
   37HTM   C18219736  -0.469   9.266   9.362 -0.0706 -0.0702  0.0451
   37HTM   C18319737  -0.527   9.398   9.362 -0.1144 -0.0891  0.4437
   37HTM   C18419738  -0.657   9.400   9.404 -0.0991 -0.2519  0.5015
   37HTM    S1919739  -0.716   9.235   9.447 -0.0273 -0.3950  0.0534
   38TAL   C18519740  -0.429   9.511   9.327  0.4917 -0.0891  0.1948
   38TAL   C18619741  -0.472   9.653   9.304  0.5278 -0.3603 -0.4255
   38TAL   C18719742  -0.366   9.747   9.263  0.0448  0.6705 -0.1700
   38TAL   C18819743  -0.401   9.890   9.216  0.3928  0.7601 -0.8577
   38TAL   C18919744  -0.272   9.963   9.198 -0.3476 -0.2073  0.5979
   38TAL   C19019745  -0.289  10.114   9.193  0.5863  0.4785  0.3271
   39HTM   C19119746  -0.755   9.499   9.419  0.5420 -0.0701  0.0818
   39HTM   C19219747  -0.865   9.512   9.339  0.6194 -0.3085 -0.0645
   39HTM   C19319748  -0.961   9.607   9.387  0.2623 -0.6486 -0.1008
   39HTM   C19419749  -0.925   9.666   9.505 -0.0871 -0.6695  0.0177
   39HTM    S2019750  -0.766   9.606   9.563  0.0080 -0.2582  0.1858
   40TAL   C19519751  -1.084   9.635   9.302  0.7463  0.2042  0.5808
   40TAL   C19619752  -1.072   9.740   9.188  0.5484 -0.2903  0.1942
   40TAL   C19719753  -1.088   9.888   9.222 -0.5312 -0.6582  0.1052
   40TAL   C19819754  -1.228   9.913   9.287 -0.7271  0.0085  0.5116
   40TAL   C19919755  -1.222  10.052   9.349 -0.2970 -0.0844 -0.3062
   40TAL   C20019756  -1.348  10.116   9.397  0.3701 -0.3755 -0.3865
   41HTM   C20119757  -0.991   9.768   9.588  0.0136 -0.1225  0.6508
   41HTM   C20219758  -0.937   9.868   9.664 -0.2728 -0.2749  1.0586
   41HTM   C20319759  -1.035   9.945   9.737 -0.5701 -0.2861  0.6751
   41HTM   C20419760  -1.163   9.904   9.717 -0.5093 -0.1422 -0.0252
   41HTM    S2119761  -1.171   9.764   9.603 -0.0685  0.0197 -0.2563
   42TAL   C20519762  -0.981  10.060   9.819 -0.2733 -0.1859 -0.0826
   42TAL   C20619763  -0.914  10.025   9.949 -0.5045  0.0980 -1.0179
   42TAL   C20719764  -0.854  10.138  10.028 -0.2221  0.0267 -0.1959
   42TAL   C20819765  -0.766  10.085  10.141 -0.8148 -0.3652  0.3470
   42TAL   C20919766  -0.697  10.195  10.227 -0.0769  0.2790 -0.7124
   42TAL   C21019767  -0.662  10.111  10.351  0.2959  0.2170  0.7193
   43HTM   C21119768  -1.289   9.957   9.762  0.3654  0.1155  0.0264
   43HTM   C21219769  -1.410   9.898   9.740  0.3371  0.2880 -0.2916
   43HTM   C21319770  -1.519   9.963   9.808  0.2592  0.4077 -0.5299
   43HTM   C21419771  -1.481  10.072   9.882  0.2277  0.3262 -0.3935
   43HTM    S2219772  -1.304  10.100   9.871  0.2946  0.0904  0.0498
   44TAL   C21519773  -1.668   9.933   9.779  0.2642  0.3674  0.1091
   44TAL   C21619774  -1.698   9.873   9.641  1.3970 -0.3448 -0.1560
   44TAL   C21719775  -1.846   9.889   9.598  0.2450  0.1221 -0.1111
   44TAL   C21819776  -1.856   9.906   9.452  0.1674 -0.7349  0.6794
   44TAL   C21919777  -1.998   9.901   9.390 -0.5106  0.0504  0.3710
   44TAL   C22019778  -2.002   9.876   9.237 -0.0530  0.5784 -0.0126
   45HTM   C22119779  -1.553  10.140   9.991 -0.5096 -0.0097 -0.1488
   45HTM   C22219780  -1.624  10.072  10.086 -0.5684  0.1201 -0.0986
   45HTM   C22319781  -1.643  10.145  10.208 -0.0987  0.0478  0.0223
   45HTM   C22419782  -1.588  10.270  10.207  0.3184 -0.1371  0.0643
   45HTM    S2319783  -1.505  10.304  10.050  0.1491 -0.2351 -0.0462
   46TAL   C22519784  -1.718  10.079  10.323  0.5080  0.3600  0.6341
   46TAL   C22619785  -1.865  10.110  10.352 -0.2541  0.3641  0.4922
   46TAL   C22719786  -1.963  10.005  10.290 -0.0949  0.6692 -0.8975
   46TAL   C22819787  -2.102  10.067  10.277  0.0399 -0.0288  0.1264
   46TAL   C22919788  -2.210   9.980  10.222 -0.9012  0.4943  0.2017
   46TAL   C23019789  -2.333  10.052  10.184  0.4578  0.0298  0.0053
   47HTM   C23119790  -1.566  10.366  10.310  0.0860  0.1094  0.0784
   47HTM   C23219791  -1.450  10.435  10.326  0.1304 -0.0198  0.3302
   47HTM   C23319792  -1.438  10.501  10.453  0.0515 -0.2620  0.4649
   47HTM   C23419793  -1.545  10.483  10.535 -0.0529 -0.3175  0.3160
   47HTM    S2419794  -1.671  10.380  10.457 -0.0602 -0.0663 -0.0086
   48TAL   C23519795  -1.314  10.596  10.495  0.2303 -0.3991  0.0410
   48TAL   C23619796  -1.330  10.685  10.620  0.1825 -0.2094 -0.0924
   48TAL   C23719797  -1.193  10.726  10.680  0.3654 -0.0490  0.2189
   48TAL   C23819798  -1.213  10.761  10.826  0.0660 -0.2574 -0.3494
   48TAL   C23919799  -1.070  10.782  10.895  0.5200  0.4320  0.4361
   48TAL   C24019800  -1.069  10.805  11.044 -0.8441  0.1131  0.0098
    1HTM     C119801   3.020   5.253   6.320  0.4244 -0.1174  0.3201
    1HTM     C219802   2.975   5.125   6.328  0.2208 -0.0236  0.6795
    1HTM     C319803   2.848   5.113   6.396  0.1328  0.3829  0.5920
    1HTM     C419804   2.797   5.231   6.439  0.2690  0.5991  0.1662
    1HTM     S119805   2.906   5.369   6.398  0.5213  0.3040 -0.1602
    2TAL     C519806   2.777   4.974   6.393 -0.2944  0.1472 -0.2077
    2TAL     C619807   2.684   4.969   6.271  0.2325 -0.9775 -0.1446
    2TAL     C719808   2.603   4.837   6.245  0.0178 -0.5809  0.7117
    2TAL     C819809   2.522   4.770   6.354 -0.3557  0.8110 -0.0127
    2TAL     C919810   2.414   4.858   6.404 -1.1571 -0.3897  0.0950
    2TAL    C1019811   2.320   4.773   6.485 -0.7605 -0.2652  0.1973
    3HTM    C1119812   2.678   5.273   6.509  0.0892  0.1326 -0.0323
    3HTM    C1219813   2.554   5.217   6.496 -0.0373  0.5341 -0.5908
    3HTM    C1319814   2.450   5.291   6.562 -0.0387  0.6728 -0.7472
    3HTM    C1419815   2.494   5.404   6.626  0.0867  0.3769 -0.3076
    3HTM     S219816   2.672   5.424   6.606  0.2173 -0.1035  0.3423
    4TAL    C1519817   2.317   5.231   6.545 -0.3930  0.5937  0.3274
    4TAL    C1619818   2.300   5.118   6.650  0.3043  0.1758  0.1345
    4TAL    C1719819   2.239   5.149   6.784 -0.1514 -0.5420  0.3746
    4TAL    C1819820   2.183   5.031   6.868  0.3203 -0.3621  0.0113
    4TAL    C1919821   2.124   4.902   6.810  0.1960  0.5203  0.6373
    4TAL    C2019822   2.056   4.817   6.912 -0.8852  0.6008 -0.2622
    5HTM    C2119823   2.427   5.516   6.695 -0.0153 -0.0617 -0.0727
    5HTM    C2219824   2.476   5.642   6.715 -0.0800 -0.0184 -0.1874
    5HTM    C2319825   2.377   5.736   6.761 -0.1140 -0.0424 -0.2110
    5HTM    C2419826   2.253   5.682   6.777 -0.0750 -0.1042 -0.1140
    5HTM     S319827   2.251   5.507   6.733  0.0079 -0.1373  0.0154
    6TAL    C2519828   2.417   5.875   6.798  0.0170  0.0919  0.0751
    6TAL    C2619829   2.560   5.931   6.795  0.0698  0.1307  0.3096
    6TAL    C2719830   2.594   6.055   6.870 -0.1754 -0.4251 -0.7424
    6TAL    C2819831   2.528   6.193   6.835 -0.0207 -0.3909  0.8171
    6TAL    C2919832   2.385   6.202   6.866  0.2830  0.4720  0.7021
    6TAL    C3019833   2.331   6.342   6.855  0.5270  0.2995 -0.2288
    7HTM    C3119834   2.123   5.736   6.827  0.1587 -0.1957  0.1351
    7HTM    C3219835   2.006   5.672   6.857  0.1010 -0.2332 -0.1664
    7HTM    C3319836   1.898   5.761   6.890 -0.0063 -0.2692 -0.4168
    7HTM    C3419837   1.933   5.893   6.885 -0.0305 -0.2589 -0.3058
    7HTM     S419838   2.106   5.915   6.838  0.0814 -0.2029  0.1270
    8TAL    C3519839   1.762   5.709   6.924  0.0056  0.8986  0.1621
    8TAL    C3619840   1.749   5.614   7.042  0.2075  0.0566 -0.1946
    8TAL    C3719841   1.624   5.532   7.067  0.7666 -0.1084 -0.1661
    8TAL    C3819842   1.644   5.448   7.190  0.6791 -0.4928  0.0804
    8TAL    C3919843   1.571   5.310   7.167 -0.3034 -0.3005 -0.2786
    8TAL    C4019844   1.571   5.237   7.293 -0.5700  0.2310 -0.3297
    9HTM    C4119845   1.860   6.020   6.911 -0.2631  0.1233  0.5359
    9HTM    C4219846   1.916   6.143   6.924 -0.2924  0.1113  0.7966
    9HTM    C4319847   1.820   6.250   6.934 -0.3189  0.1073  0.6034
    9HTM    C4419848   1.691   6.208   6.930 -0.3099  0.1163  0.1955
    9HTM     S519849   1.680   6.029   6.912 -0.2668  0.1305  0.0222
   10TAL    C4519850   1.856   6.393   6.953 -0.1556 -0.0470  1.1600
   10TAL    C4619851   1.973   6.424   7.047 -0.4038  0.4945 -0.3632
   10TAL    C4719852   2.023   6.572   7.043 -0.2192 -0.5455 -0.5661
   10TAL    C4819853   2.107   6.609   6.925  0.1149  0.2659  0.2724
   10TAL    C4919854   2.130   6.757   6.909  0.5189 -0.2505 -1.0535
   10TAL    C5019855   2.238   6.781   6.798 -0.1352 -0.4068  0.4992
   11HTM    C5119856   1.568   6.286   6.922 -0.0964  0.2018  0.3853
   11HTM    C5219857   1.491   6.340   7.021 -0.2352  0.6254  0.0463
   11HTM    C5319858   1.361   6.382   6.977 -0.2517  0.2453 -0.2718
   11HTM    C5419859   1.338   6.360   6.844 -0.1257 -0.4678 -0.1757
   11HTM     S619860   1.480   6.283   6.764  0.0249 -0.7168  0.3281
   12TAL    C5519861   1.267   6.467   7.064 -0.4131 -0.4082  0.2716
   12TAL    C5619862   1.290   6.482   7.215  0.0293  0.1399  0.2612
   12TAL    C5719863   1.258   6.360   7.306 -0.1520  0.0022 -0.0779
   12TAL    C5819864   1.111   6.301   7.301 -0.4214  0.0749 -0.0133
   12TAL    C5919865   0.992   6.397   7.324 -0.0119  0.2066  0.0766
   12TAL    C6019866   0.859   6.353   7.265 -0.2542  0.7965  0.2272
   13HTM    C6119867   1.226   6.389   6.760 -0.0024 -0.2047 -0.2597
   13HTM    C6219868   1.229   6.389   6.624 -0.0640 -0.1788 -0.2611
   13HTM    C6319869   1.100   6.403   6.562 -0.0672  0.0598 -0.1993
   13HTM    C6419870   0.997   6.414   6.652 -0.0080  0.2157 -0.1507
   13HTM     S719871   1.057   6.408   6.822  0.0568  0.0719 -0.1794
   14TAL    C6519872   1.081   6.402   6.406 -0.7038  0.3093  1.1625
   14TAL    C6619873   1.137   6.270   6.353  0.1626  0.4452  0.6082
   14TAL    C6719874   1.145   6.264   6.201  0.3608  0.1874  0.2824
   14TAL    C6819875   1.186   6.119   6.163  0.1210  0.0527  0.4306
   14TAL    C6919876   1.192   6.098   6.013 -0.3560 -0.1827 -0.3280
   14TAL    C7019877   1.259   5.973   5.953  0.5057  0.1254 -0.2657
   15HTM    C7119878   0.849   6.424   6.628  0.0192 -0.0752 -0.1336
   15HTM    C7219879   0.767   6.524   6.672  0.0855 -0.0627 -0.0365
   15HTM    C7319880   0.629   6.506   6.636  0.0307 -0.0727  0.1802
   15HTM    C7419881   0.605   6.391   6.566 -0.0774 -0.0929  0.2489
   15HTM     S819882   0.757   6.297   6.538 -0.1187 -0.1005  0.0430
   16TAL    C7519883   0.527   6.621   6.659 -0.8430  0.4199  0.4020
   16TAL    C7619884   0.582   6.763   6.666 -0.2372 -1.0543  0.1830
   16TAL    C7719885   0.477   6.872   6.678  0.5415 -0.0251 -0.3942
   16TAL    C7819886   0.544   7.012   6.659  0.1985 -0.2975 -0.1293
   16TAL    C7919887   0.442   7.121   6.660 -0.1750  0.1753  0.0745
   16TAL    C8019888   0.519   7.253   6.662 -0.4419  0.3983 -0.3672
   17HTM    C8119889   0.485   6.330   6.519 -0.0546  0.5402  0.2105
   17HTM    C8219890   0.471   6.199   6.484  0.4779  0.4914  0.1805
   17HTM    C8319891   0.338   6.163   6.442  0.6591 -0.0029  0.0155
   17HTM    C8419892   0.250   6.267   6.446  0.2648 -0.3312 -0.0805
   17HTM     S919893   0.329   6.419   6.503 -0.3709 -0.0394  0.0310
   18TAL    C8519894   0.311   6.016   6.402  0.0885  0.0415  0.0987
   18TAL    C8619895   0.429   5.917   6.411  0.4920  0.0532 -0.1306
   18TAL    C8719896   0.389   5.773   6.362  0.0091  0.0212 -0.2379
   18TAL    C8819897   0.340   5.772   6.215 -0.4491  0.1779 -0.2396
   18TAL    C8919898   0.352   5.638   6.143 -0.3876  0.4592 -0.3483
   18TAL    C9019899   0.502   5.588   6.131  0.2271  0.3532  0.4482
   19HTM    C9119900   0.111   6.268   6.403  0.3612 -0.3422 -0.5048
   19HTM    C9219901   0.039   6.383   6.400  0.6070 -0.1941 -0.6878
   19HTM    C9319902  -0.103   6.363   6.396  0.5617  0.1037 -0.5949
   19HTM    C9419903  -0.140   6.232   6.397  0.2813  0.1826 -0.3408
   19HTM    S1019904   0.004   6.123   6.402  0.0508 -0.1155 -0.1980
   20TAL    C9519905  -0.195   6.484   6.388  0.0518  0.2482  0.8968
   20TAL    C9619906  -0.170   6.626   6.436  1.0323 -0.1199 -0.3132
   20TAL    C9719907  -0.028   6.683   6.429 -0.0931 -0.4211  0.2364
   20TAL    C9819908  -0.029   6.812   6.495 -0.2133 -0.4350  0.3890
   20TAL    C9919909   0.111   6.869   6.521 -0.1712  0.4030  0.2151
   20TAL   C10019910   0.109   6.994   6.604  0.0635 -0.0147  0.1434
   21HTM   C10119911  -0.277   6.160   6.406 -0.3353  0.0790 -0.7968
   21HTM   C10219912  -0.300   6.026   6.402 -0.5302  0.1137 -0.8373
   21HTM   C10319913  -0.439   5.991   6.414 -0.5283  0.2854 -0.3111
   21HTM   C10419914  -0.522   6.098   6.428 -0.3326  0.3814  0.1297
   21HTM    S1119915  -0.430   6.253   6.427 -0.1333  0.2615 -0.0863
   22TAL   C10519916  -0.485   5.846   6.398  0.5114  0.3294  0.5348
   22TAL   C10619917  -0.419   5.760   6.288  0.3830 -0.3066 -0.3134
   22TAL   C10719918  -0.455   5.790   6.142  0.3614  0.1215  0.5268
   22TAL   C10819919  -0.375   5.720   6.030 -0.0700 -0.4743 -0.1858
   22TAL   C10919920  -0.369   5.569   6.033  0.6785  0.0282 -0.3453
   22TAL   C11019921  -0.269   5.534   5.918  0.5586  0.6366  0.4999
   23HTM   C11119922  -0.668   6.102   6.431 -0.3013 -0.0527  0.3424
   23HTM   C11219923  -0.740   6.214   6.459 -0.4125 -0.1645  0.5054
   23HTM   C11319924  -0.882   6.193   6.457 -0.3920 -0.3009  0.4659
   23HTM   C11419925  -0.919   6.065   6.427 -0.2648 -0.2925  0.2726
   23HTM    S1219926  -0.774   5.960   6.400 -0.1606 -0.1107  0.1249
   24TAL   C11519927  -0.983   6.307   6.487  0.4081  0.2558  0.2666
   24TAL   C11619928  -0.980   6.420   6.382 -0.6783  0.3936  0.0521
   24TAL   C11719929  -1.070   6.539   6.405  0.4765 -0.1080  0.0127
   24TAL   C11819930  -1.220   6.533   6.365  0.1485  0.8258  0.1329
   24TAL   C11919931  -1.303   6.432   6.438 -0.6153 -0.0688 -0.3026
   24TAL   C12019932  -1.413   6.371   6.349 -0.9271 -0.2001  0.2917
   25HTM   C12119933  -1.052   6.006   6.434  0.0429  0.5159 -0.2630
   25HTM   C12219934  -1.075   5.877   6.471  0.2985  0.3486 -0.6807
   25HTM   C12319935  -1.212   5.836   6.456  0.3500  0.1733 -0.6704
   25HTM   C12419936  -1.294   5.933   6.407  0.1337  0.2075 -0.2448
   25HTM    S1319937  -1.203   6.086   6.377 -0.1540  0.4652  0.1790
   26TAL   C12519938  -1.247   5.691   6.476 -0.3770 -0.0202 -0.1084
   26TAL   C12619939  -1.220   5.638   6.622  0.5418  0.1106 -0.3600
   26TAL   C12719940  -1.319   5.663   6.731 -0.1473  0.7448  0.2347
   26TAL   C12819941  -1.458   5.601   6.725 -0.0621  0.6642  0.0080
   26TAL   C12919942  -1.555   5.633   6.833 -0.0003  0.1599  1.0392
   26TAL   C13019943  -1.684   5.551   6.826  0.0199  0.1431 -0.4918
   27HTM   C13119944  -1.438   5.936   6.404 -0.3809  0.0657  0.1491
   27HTM   C13219945  -1.517   5.965   6.297 -0.3619  0.1647  0.1609
   27HTM   C13319946  -1.658   5.951   6.325 -0.3586 -0.0663  0.0625
   27HTM   C13419947  -1.686   5.912   6.452 -0.3753 -0.3417 -0.0243
   27HTM    S1419948  -1.535   5.889   6.549 -0.3966 -0.3304  0.0116
   28TAL   C13519949  -1.757   6.005   6.216  0.0209 -0.3741  0.2859
   28TAL   C13619950  -1.767   5.935   6.078 -0.8216 -0.5870 -0.1714
   28TAL   C13719951  -1.875   5.832   6.073 -0.2196 -0.1087  0.5083
   28TAL   C13819952  -1.845   5.688   6.109 -0.4936 -0.1240  0.5620
   28TAL   C13919953  -1.736   5.619   6.025 -0.2137 -0.0313  0.8401
   28TAL   C14019954  -1.718   5.469   6.057 -0.6893 -0.6423  0.4560
   29HTM   C14119955  -1.813   5.890   6.521  0.1274 -0.3361 -0.4427
   29HTM   C14219956  -1.840   5.923   6.651  0.7164 -0.4323 -0.2930
   29HTM   C14319957  -1.979   5.916   6.685  0.8368 -0.1943  0.2625
   29HTM   C14419958  -2.059   5.877   6.581  0.3394  0.0831  0.5363
   29HTM    S1519959  -1.963   5.846   6.432 -0.3237  0.0655  0.1112
   30TAL   C14519960  -2.022   5.940   6.831 -0.2856 -0.0340  0.5594
   30TAL   C14619961  -2.003   6.085   6.883  0.5373 -0.3265  0.4841
   30TAL   C14719962  -2.076   6.190   6.792  0.1316  0.2961 -1.0597
   30TAL   C14819963  -2.026   6.332   6.817  0.6157  0.1557 -0.1331
   30TAL   C14919964  -2.084   6.424   6.714 -0.4669  0.3781  0.6402
   30TAL   C15019965  -2.009   6.556   6.711  0.1382 -0.4138 -0.2686
   31HTM   C15119966  -2.204   5.870   6.562 -0.1196  0.2171  0.1304
   31HTM   C15219967  -2.307   5.947   6.609 -0.1469  0.1240  0.2229
   31HTM   C15319968  -2.436   5.909   6.557 -0.1485  0.0620  0.2730
   31HTM   C15419969  -2.431   5.804   6.471 -0.1229  0.1074  0.2185
   31HTM    S1619970  -2.263   5.743   6.448 -0.0937  0.2336  0.0987
   32TAL   C15519971  -2.556   5.999   6.590 -0.1742 -0.1946  0.4590
   32TAL   C15619972  -2.530   6.144   6.627  0.2725 -0.3869 -0.9449
   32TAL   C15719973  -2.470   6.237   6.519  0.3390  0.3760  0.2311
   32TAL   C15819974  -2.452   6.379   6.570  0.2944  0.0031  0.2740
   32TAL   C15919975  -2.390   6.473   6.464 -0.0419  0.2444  0.5176
   32TAL   C16019976  -2.380   6.618   6.509 -0.4448  0.4705  0.6621
   33HTM   C16119977  -2.534   5.738   6.400  0.4139  0.5153 -0.3845
   33HTM   C16219978  -2.527   5.616   6.340  0.7567  0.5167 -0.3481
   33HTM   C16319979  -2.648   5.579   6.270  0.7992  0.0782 -0.1867
   33HTM   C16419980  -2.747   5.672   6.278  0.4885 -0.2578 -0.0996
   33HTM    S1719981  -2.695   5.815   6.375  0.1158 -0.0448 -0.2157
   34TAL   C16519982  -2.659   5.437   6.211  0.9714  0.0115 -0.5827
   34TAL   C16619983  -2.613   5.404   6.071 -0.4857  0.5337  0.6200
   34TAL   C16719984  -2.468   5.443   6.033 -0.5531  0.1940 -0.3417
   34TAL   C16819985  -2.370   5.354   6.122 -0.6434  0.5334  0.7906
   34TAL   C16919986  -2.222   5.387   6.106  0.1836  0.3537 -0.0638
   34TAL   C17019987  -2.187   5.536   6.145  0.2416  0.1054  0.0109
   35HTM   C17119988  -2.888   5.661   6.239 -0.2095 -0.0563 -0.2792
   35HTM   C17219989  -2.956   5.562   6.176 -0.2961  0.1299 -0.4795
   35HTM   C17319990  -3.093   5.596   6.144 -0.3231  0.2456 -0.2446
   35HTM   C17419991  -3.128   5.721   6.183 -0.2566  0.1470  0.1347
   35HTM    S1819992  -2.992   5.807   6.264 -0.1545 -0.1006  0.2253
   36TAL   C17519993  -3.150   5.487   6.056 -0.0896 -0.0043 -0.8240
   36TAL   C17619994  -3.191   5.364   6.136  0.2346  0.5268  0.5467
   36TAL   C17719995  -3.289   5.280   6.053 -1.0924 -0.2312  0.1409
   36TAL   C17819996  -3.340   5.157   6.120  0.3063  0.1200 -0.2376
   36TAL   C17919997  -3.437   5.087   6.038  0.3246 -0.2034  0.5285
   36TAL   C18019998  -3.475   4.944   6.063  0.2614  0.1142  0.3305
   37HTM   C18119999  -3.259   5.783   6.189 -0.0296  0.1644  0.0205
   37HTM   C18220000  -3.290   5.883   6.276  0.0088  0.2201 -0.0300
   37HTM   C18320001  -3.430   5.915   6.280  0.0198  0.2692 -0.0381
   37HTM   C18420002  -3.506   5.839   6.196 -0.0099  0.2508  0.0063
   37HTM    S1920003  -3.406   5.720   6.105 -0.0552  0.1696  0.0620
   38TAL   C18520004  -3.492   6.021   6.374  0.4820 -0.0521  0.2477
   38TAL   C18620005  -3.423   6.156   6.369 -0.4848 -0.2081  0.0723
   38TAL   C18720006  -3.505   6.269   6.418  0.3231 -0.0454  0.8840
   38TAL   C18820007  -3.436   6.408   6.411 -0.1536 -0.0996 -0.3851
   38TAL   C18920008  -3.505   6.527   6.484 -0.1393 -0.1023  0.1674
   38TAL   C19020009  -3.423   6.649   6.448 -0.1519 -0.0633  0.3265
   39HTM   C19120010  -3.648   5.839   6.175  0.6550 -0.2333 -0.3404
   39HTM   C19220011  -3.724   5.951   6.164  1.1141  0.0083 -1.1292
   39HTM   C19320012  -3.862   5.925   6.133  1.0521  0.3653 -1.1573
   39HTM   C19420013  -3.891   5.793   6.120  0.5455  0.3961 -0.3901
   39HTM    S2020014  -3.746   5.690   6.147  0.1046 -0.0271  0.4336
   40TAL   C19520015  -3.963   6.044   6.129  0.6700 -0.4070  0.3096
   40TAL   C19620016  -3.909   6.191   6.132  0.5195  0.5999 -0.0264
   40TAL   C19720017  -4.007   6.310   6.106  0.1442 -0.4416 -0.1800
   40TAL   C19820018  -4.139   6.320   6.188  0.0187  0.3100 -0.2556
   40TAL   C19920019  -4.165   6.464   6.242 -0.3442  0.1418 -0.0678
   40TAL   C20020020  -4.297   6.520   6.177  0.3089 -0.7088 -0.0995
   41HTM   C20120021  -4.015   5.720   6.098  0.1773 -0.2520  0.4916
   41HTM   C20220022  -4.141   5.748   6.144  0.1938 -0.5834  0.7443
   41HTM   C20320023  -4.243   5.662   6.091  0.1957 -0.2973  0.2704
   41HTM   C20420024  -4.196   5.567   6.004  0.1807  0.2522 -0.3437
   41HTM    S2120025  -4.017   5.581   5.983  0.1627  0.4523 -0.3717
   42TAL   C20520026  -4.382   5.683   6.142  0.3206  0.2558 -1.2447
   42TAL   C20620027  -4.466   5.800   6.095  0.0363 -0.1444 -0.0160
   42TAL   C20720028  -4.428   5.941   6.136  0.8132  0.5170 -0.5127
   42TAL   C20820029  -4.541   6.041   6.128  0.4458 -0.2871 -0.2323
   42TAL   C20920030  -4.483   6.179   6.144 -0.6158 -0.5690  0.0025
   42TAL   C21020031  -4.600   6.283   6.160 -0.1128  0.3334  0.5275
   43HTM   C21120032  -4.266   5.467   5.927 -0.4023 -0.1254  0.2523
   43HTM   C21220033  -4.207   5.382   5.840 -0.4609 -0.0954  0.1833
   43HTM   C21320034  -4.300   5.304   5.763 -0.5195  0.2296 -0.0780
   43HTM   C21420035  -4.431   5.330   5.792 -0.5056  0.4472 -0.2075
   43HTM    S2220036  -4.446   5.456   5.920 -0.4164  0.2575 -0.0089
   44TAL   C21520037  -4.241   5.219   5.655 -0.7586  0.1742 -0.3336
   44TAL   C21620038  -4.242   5.070   5.679  0.6338  0.2443  0.0813
   44TAL   C21720039  -4.223   4.976   5.556  0.3697 -0.3197 -0.3471
   44TAL   C21820040  -4.315   4.997   5.445 -0.0282  0.7520  0.2948
   44TAL   C21920041  -4.265   4.920   5.323  0.3995 -0.0875 -0.4410
   44TAL   C22020042  -4.350   4.902   5.198  0.1725  0.5970 -0.0629
   45HTM   C22120043  -4.546   5.273   5.733 -0.1382  0.1768 -0.6229
   45HTM   C22220044  -4.566   5.219   5.609 -0.3974  0.2682 -0.6218
   45HTM   C22320045  -4.703   5.182   5.583 -0.4251  0.1493 -0.3057
   45HTM   C22420046  -4.787   5.207   5.687 -0.1869 -0.0331 -0.0667
   45HTM    S2320047  -4.699   5.281   5.827  0.0933 -0.0688 -0.2224
   46TAL   C22520048  -4.748   5.129   5.452 -0.4836  0.1010 -1.0161
   46TAL   C22620049  -4.704   4.996   5.392  0.5017  0.2177  0.1963
   46TAL   C22720050  -4.699   4.885   5.491 -0.0706  0.4001 -0.4163
   46TAL   C22820051  -4.627   4.762   5.427 -0.2454 -0.1747 -0.1574
   46TAL   C22920052  -4.605   4.661   5.530 -0.5071  0.8647  0.0197
   46TAL   C23020053  -4.532   4.546   5.471 -0.3683 -0.5448 -0.0590
   47HTM   C23120054  -4.931   5.175   5.699 -0.0212  0.4375  0.4145
   47HTM   C23220055  -4.988   5.063   5.750  0.0575  0.6626  1.0059
   47HTM   C23320056  -5.131   5.059   5.735  0.0727  0.4294  0.9251
   47HTM   C23420057  -5.183   5.168   5.672  0.0055  0.0266  0.2725
   47HTM    S2420058  -5.054   5.286   5.627 -0.0829 -0.0909 -0.2956
   48TAL   C23520059  -5.223   4.949   5.799  0.9368 -0.9475 -0.7198
   48TAL   C23620060  -5.289   4.843   5.705  0.3057 -0.0138 -0.6870
   48TAL   C23720061  -5.192   4.751   5.630 -0.2869  0.1359  0.5385
   48TAL   C23820062  -5.125   4.646   5.723  0.2658  0.2476 -0.1485
   48TAL   C23920063  -5.010   4.571   5.649 -0.1644  0.4786  0.0360
   48TAL   C24020064  -4.918   4.484   5.732 -0.7791 -0.1684 -0.2512
    1HTM     C120065   6.682   3.848   7.857 -0.3316  0.0297  0.1423
    1HTM     C220066   6.786   3.785   7.797 -0.4675  0.1724 -0.2441
    1HTM     C320067   6.915   3.835   7.836 -0.3819  0.1453 -0.4900
    1HTM     C420068   6.909   3.937   7.926 -0.1806 -0.0182 -0.2908
    1HTM     S120069   6.739   3.978   7.969 -0.0832 -0.1516  0.2270
    2TAL     C520070   7.044   3.790   7.763  0.0051 -0.1476 -0.3972
    2TAL     C620071   7.098   3.644   7.786  0.6129 -0.5579  0.5284
    2TAL     C720072   7.133   3.618   7.928 -0.0879  0.4221  0.2761
    2TAL     C820073   7.167   3.468   7.946 -0.3481 -0.1930 -0.3380
    2TAL     C920074   7.188   3.428   8.088 -0.2948 -0.5072  0.5847
    2TAL    C1020075   7.265   3.299   8.104 -0.4832  0.2722  0.5505
    3HTM    C1120076   7.018   4.015   7.985  0.1436 -0.0221  0.2214
    3HTM    C1220077   7.151   3.986   7.997  0.0603 -0.2346  0.6306
    3HTM    C1320078   7.228   4.091   8.058  0.0255 -0.3974  0.9570
    3HTM    C1420079   7.155   4.200   8.093  0.0819 -0.3090  0.7975
    3HTM     S220080   6.981   4.179   8.051  0.1846 -0.0111  0.2175
    4TAL    C1520081   7.383   4.076   8.066 -0.3235 -0.1895  0.3689
    4TAL    C1620082   7.443   3.940   8.034 -0.3216  0.1551 -0.4162
    4TAL    C1720083   7.596   3.944   8.012  0.0620 -0.0023 -0.4349
    4TAL    C1820084   7.643   3.808   7.958 -0.0788  0.2142  0.4203
    4TAL    C1920085   7.794   3.811   7.918 -0.2763  0.1195 -0.6542
    4TAL    C2020086   7.836   3.689   7.839  0.3950  0.3948  0.1740
    5HTM    C2120087   7.195   4.316   8.165  0.0452 -0.4523  0.0870
    5HTM    C2220088   7.140   4.370   8.277  0.2048 -0.6857  0.2785
    5HTM    C2320089   7.211   4.484   8.328  0.2337 -0.7448  0.3710
    5HTM    C2420090   7.321   4.517   8.255  0.0960 -0.5568  0.2500
    5HTM     S320091   7.343   4.406   8.114 -0.0820 -0.2879  0.0079
    6TAL    C2520092   7.157   4.552   8.453  0.0367  0.1369  0.1260
    6TAL    C2620093   7.021   4.623   8.432 -0.4798  0.4646  0.3520
    6TAL    C2720094   6.942   4.644   8.559 -0.2093  0.2860  0.3146
    6TAL    C2820095   7.014   4.724   8.670  0.0606 -0.3361 -0.5541
    6TAL    C2920096   6.949   4.711   8.810 -0.3533  0.0850  0.5068
    6TAL    C3020097   7.021   4.774   8.918  0.0078  0.4011  0.0092
    7HTM    C3120098   7.410   4.633   8.265 -0.3820 -0.3043 -0.0405
    7HTM    C3220099   7.540   4.627   8.226 -0.4547 -0.2813 -0.2933
    7HTM    C3320100   7.613   4.750   8.247 -0.4170 -0.2925 -0.3586
    7HTM    C3420101   7.537   4.850   8.300 -0.3158 -0.3247 -0.1566
    7HTM     S420102   7.367   4.796   8.330 -0.2600 -0.3429  0.1351
    8TAL    C3520103   7.756   4.763   8.201 -0.2588 -0.2800  0.4096
    8TAL    C3620104   7.819   4.656   8.117  0.2579 -0.1900  0.4242
    8TAL    C3720105   7.970   4.648   8.105 -0.6524 -0.5042  0.8213
    8TAL    C3820106   8.026   4.507   8.080 -0.0675 -1.0606  0.2069
    8TAL    C3920107   8.183   4.514   8.069  0.4286  0.5910 -0.1591
    8TAL    C4020108   8.249   4.386   8.035 -0.2349 -0.4079 -0.4002
    9HTM    C4120109   7.556   4.991   8.329  0.3045 -0.1112 -0.3925
    9HTM    C4220110   7.635   5.044   8.426  0.5338 -0.2522 -0.5012
    9HTM    C4320111   7.615   5.185   8.447  0.4742 -0.3114 -0.1445
    9HTM    C4420112   7.520   5.239   8.365  0.1989 -0.2147  0.2364
    9HTM     S520113   7.448   5.115   8.255 -0.0078 -0.0408  0.1732
   10TAL    C4520114   7.694   5.258   8.550 -0.0249  0.4489  0.1458
   10TAL    C4620115   7.702   5.199   8.694  0.0731  0.5998 -0.1555
   10TAL    C4720116   7.570   5.166   8.760  0.3818  0.7820  0.1870
   10TAL    C4820117   7.468   5.283   8.775  0.6203  0.1211 -0.6374
   10TAL    C4920118   7.346   5.247   8.854 -0.1425  0.3607 -0.6168
   10TAL    C5020119   7.256   5.363   8.858 -0.1404 -0.4343 -0.4262
   11HTM    C5120120   7.478   5.377   8.359 -0.0364  0.0609  0.0695
   11HTM    C5220121   7.411   5.458   8.445  0.1323  0.0625  0.1988
   11HTM    C5320122   7.363   5.580   8.385  0.2778  0.2010  0.3638
   11HTM    C5420123   7.393   5.592   8.253  0.2196  0.3048  0.3606
   11HTM     S620124   7.486   5.449   8.193 -0.0248  0.2352  0.1470
   12TAL    C5520125   7.278   5.676   8.469 -0.0116 -0.3335 -0.3083
   12TAL    C5620126   7.160   5.615   8.560 -0.5284 -0.3420 -0.5329
   12TAL    C5720127   7.051   5.530   8.498 -0.4553  0.3451  0.3813
   12TAL    C5820128   6.968   5.599   8.396 -0.3946  0.8450  0.1794
   12TAL    C5920129   6.878   5.494   8.324  0.1130  0.0324  0.3092
   12TAL    C6020130   6.770   5.569   8.247 -0.1087 -0.1486  0.1544
   13HTM    C6120131   7.361   5.696   8.163 -0.0060 -0.3535  0.2170
   13HTM    C6220132   7.453   5.726   8.067  0.1984 -0.3169  0.4215
   13HTM    C6320133   7.432   5.855   8.005  0.2828 -0.3273  0.3715
   13HTM    C6420134   7.324   5.922   8.054  0.1426 -0.3721  0.1286
   13HTM     S720135   7.240   5.829   8.183 -0.1084 -0.4044 -0.0574
   14TAL    C6520136   7.538   5.901   7.902 -0.0084 -0.3824 -0.3935
   14TAL    C6620137   7.673   5.933   7.977  0.1928 -0.3078  1.0879
   14TAL    C6720138   7.786   6.001   7.895  0.3269  0.7205 -0.2477
   14TAL    C6820139   7.781   6.151   7.911  0.3660 -0.4057  0.3070
   14TAL    C6920140   7.847   6.216   7.791 -0.2560 -0.8040  0.6587
   14TAL    C7020141   7.826   6.371   7.793 -0.0753 -0.4984  0.0861
   15HTM    C7120142   7.271   6.051   8.018 -0.7657 -0.1552 -0.2962
   15HTM    C7220143   7.345   6.157   7.975 -0.7308 -0.5157 -1.1482
   15HTM    C7320144   7.271   6.280   7.967 -0.5021 -0.3929 -1.3914
   15HTM    C7420145   7.140   6.268   8.004 -0.3624  0.0614 -0.7249
   15HTM     S820146   7.100   6.099   8.052 -0.5102  0.3721  0.2705
   16TAL    C7520147   7.343   6.400   7.905  0.3237 -0.1825  0.9363
   16TAL    C7620148   7.447   6.460   7.986  0.3122 -0.6858  0.2817
   16TAL    C7720149   7.513   6.586   7.935  0.2301 -0.2175  0.3036
   16TAL    C7820150   7.428   6.708   7.936  0.2176 -0.6676  0.2420
   16TAL    C7920151   7.374   6.781   8.057  0.3195  0.0198  0.0021
   16TAL    C8020152   7.303   6.904   8.026 -0.1631 -0.2761  0.1202
   17HTM    C8120153   7.037   6.367   8.008 -0.3893 -0.0651 -0.1939
   17HTM    C8220154   6.904   6.339   8.009 -0.4463  0.2069 -0.1702
   17HTM    C8320155   6.820   6.455   7.991 -0.2186  0.4094  0.0613
   17HTM    C8420156   6.890   6.571   7.976  0.0120  0.2911  0.2143
   17HTM     S920157   7.068   6.543   7.984 -0.0407 -0.0877  0.0766
   18TAL    C8520158   6.671   6.431   7.979 -0.4634  0.3575  0.1055
   18TAL    C8620159   6.616   6.435   7.834 -0.1596 -0.5080 -0.4784
   18TAL    C8720160   6.679   6.351   7.735 -0.7061  0.3963  0.4113
   18TAL    C8820161   6.679   6.196   7.755 -0.1620  0.0533  0.1529
   18TAL    C8920162   6.748   6.134   7.640  0.0056 -0.3483  0.3121
   18TAL    C9020163   6.666   6.018   7.579 -0.1624  0.0268  0.2910
   19HTM    C9120164   6.847   6.709   7.958  0.1730  0.1554  0.5022
   19HTM    C9220165   6.908   6.810   7.890  0.3793  0.2434  0.8156
   19HTM    C9320166   6.832   6.933   7.890  0.2246  0.1483  0.4704
   19HTM    C9420167   6.714   6.925   7.958 -0.0993 -0.0123 -0.1064
   19HTM    S1020168   6.689   6.761   8.028 -0.2356 -0.0561 -0.2588
   20TAL    C9520169   6.878   7.054   7.812 -0.8738  0.0776 -0.7333
   20TAL    C9620170   6.976   7.147   7.898 -0.1490  1.5456  0.2722
   20TAL    C9720171   6.976   7.297   7.889 -0.6346 -0.3136 -0.5236
   20TAL    C9820172   6.862   7.386   7.936  0.4209  0.2833 -0.3076
   20TAL    C9920173   6.896   7.518   7.990  0.0297 -0.3201 -0.1817
   20TAL   C10020174   6.767   7.590   8.043 -0.3177  0.0622 -0.1126
   21HTM   C10120175   6.614   7.031   7.987  0.4109  0.1765  0.1412
   21HTM   C10220176   6.555   7.040   8.109  0.3304  0.1998  0.1006
   21HTM   C10320177   6.468   7.154   8.123  0.2284  0.1361 -0.0186
   21HTM   C10420178   6.461   7.232   8.012  0.2308  0.0643 -0.0684
   21HTM    S1120179   6.564   7.167   7.879  0.3633  0.0715  0.0321
   22TAL   C10520180   6.395   7.189   8.250 -0.1936  0.2145 -0.5178
   22TAL   C10620181   6.298   7.076   8.296  0.1516 -0.1875  0.1762
   22TAL   C10720182   6.205   7.115   8.415  0.1716  0.1111 -0.1785
   22TAL   C10820183   6.139   7.252   8.402  0.5633 -0.0075 -0.1981
   22TAL   C10920184   6.028   7.275   8.303  0.5104 -0.1309  0.3204
   22TAL   C11020185   5.957   7.407   8.302 -0.2664 -0.0938 -0.9011
   23HTM   C11120186   6.371   7.347   7.986 -0.2181  0.4413 -0.4763
   23HTM   C11220187   6.330   7.388   7.862 -0.2759  0.9205 -0.3016
   23HTM   C11320188   6.235   7.496   7.865 -0.1833  0.9916  0.1559
   23HTM   C11420189   6.203   7.537   7.991 -0.0550  0.5664  0.3307
   23HTM    S1220190   6.292   7.443   8.117 -0.0412  0.0396 -0.0716
   24TAL   C11520191   6.186   7.555   7.735 -0.3926  0.2328 -0.3513
   24TAL   C11620192   6.289   7.607   7.637  0.0496  0.2508 -0.3288
   24TAL   C11720193   6.222   7.667   7.510 -0.1476 -0.1948 -0.1504
   24TAL   C11820194   6.301   7.746   7.401  0.4191  0.3969 -0.2346
   24TAL   C11920195   6.361   7.868   7.460 -0.0181  0.0906 -0.0030
   24TAL   C12020196   6.445   7.947   7.369 -0.4837  0.0642  0.4224
   25HTM   C12120197   6.110   7.638   8.035 -0.2841 -0.0727  0.2775
   25HTM   C12220198   6.140   7.755   8.099 -0.4420 -0.0160  0.2503
   25HTM   C12320199   6.027   7.844   8.113 -0.4969 -0.0410 -0.0262
   25HTM   C12420200   5.912   7.796   8.059 -0.3807 -0.1164 -0.2090
   25HTM    S1320201   5.936   7.632   7.987 -0.1918 -0.1621 -0.0456
   26TAL   C12520202   6.044   7.979   8.184 -0.4295  0.1255  0.2539
   26TAL   C12620203   6.157   8.061   8.115 -0.2516 -0.0418 -0.1398
   26TAL   C12720204   6.115   8.121   7.986 -0.4261 -0.1183  0.5452
   26TAL   C12820205   6.041   8.254   8.005  0.0670  0.1280  0.1285
   26TAL   C12920206   6.004   8.316   7.877 -0.4651 -0.3660 -0.0955
   26TAL   C13020207   5.903   8.431   7.900 -0.5041 -0.3564  0.7313
   27HTM   C13120208   5.790   7.869   8.047  0.4957  0.1177  0.2961
   27HTM   C13220209   5.777   7.973   7.959  0.3664  0.2532  0.4749
   27HTM   C13320210   5.645   8.032   7.959  0.2651  0.0305  0.5116
   27HTM   C13420211   5.558   7.974   8.046  0.3171 -0.2750  0.3615
   27HTM    S1420212   5.636   7.839   8.136  0.4995 -0.3051  0.1592
   28TAL   C13520213   5.616   8.154   7.867  0.5526  0.6134  0.9792
   28TAL   C13620214   5.679   8.157   7.729 -0.0685  0.1519  0.2987
   28TAL   C13720215   5.602   8.236   7.630  0.3232  0.1150  0.0260
   28TAL   C13820216   5.661   8.260   7.492  0.0339  0.0760 -0.3258
   28TAL   C13920217   5.566   8.303   7.382 -0.3930  0.0163 -0.3571
   28TAL   C14020218   5.634   8.300   7.249  0.0144 -0.0739  0.2857
   29HTM   C14120219   5.415   8.009   8.064  0.3744  0.0503 -0.0919
   29HTM   C14220220   5.320   7.915   8.096  0.7920 -0.2115  0.3982
   29HTM   C14320221   5.187   7.968   8.101  0.6368 -0.6430  0.7935
   29HTM   C14420222   5.179   8.101   8.074  0.1006 -0.7100  0.6071
   29HTM    S1520223   5.341   8.171   8.039 -0.2523 -0.2292 -0.0896
   30TAL   C14520224   5.063   7.882   8.135  0.4617  0.2666 -0.1131
   30TAL   C14620225   5.078   7.735   8.174 -0.0089 -0.0512 -0.3305
   30TAL   C14720226   4.954   7.644   8.193 -0.8584 -0.1923 -0.6010
   30TAL   C14820227   4.998   7.515   8.268  0.0370 -0.0761  0.0000
   30TAL   C14920228   4.903   7.455   8.371 -0.1677 -0.8747  0.0415
   30TAL   C15020229   4.962   7.332   8.431 -0.2558 -0.6128 -0.2152
   31HTM   C15120230   5.057   8.189   8.069  0.2656 -0.0345 -0.0928
   31HTM   C15220231   4.928   8.148   8.078  0.3512 -0.3171 -0.1512
   31HTM   C15320232   4.832   8.251   8.051  0.1371 -0.5293 -0.2079
   31HTM   C15420233   4.888   8.372   8.021 -0.1124 -0.4084 -0.1923
   31HTM    S1620234   5.068   8.364   8.026 -0.0953 -0.0141 -0.1046
   32TAL   C15520235   4.683   8.229   8.043 -0.4539  0.2423  0.1548
   32TAL   C15620236   4.609   8.221   8.172  0.5044  0.0134 -0.1380
   32TAL   C15720237   4.475   8.151   8.157 -0.1621  0.4304 -0.8712
   32TAL   C15820238   4.366   8.182   8.264 -0.0033  0.6229 -0.5049
   32TAL   C15920239   4.311   8.328   8.274 -0.2741  0.3349 -0.2177
   32TAL   C16020240   4.172   8.334   8.340  0.0287  0.6302 -0.4363
   33HTM   C16120241   4.824   8.509   8.001 -0.1329 -0.2689 -0.1302
   33HTM   C16220242   4.896   8.621   7.972 -0.0124 -0.2570  0.2158
   33HTM   C16320243   4.818   8.742   7.970  0.1037 -0.1755  0.5119
   33HTM   C16420244   4.686   8.722   7.997  0.0714 -0.1260  0.3923
   33HTM    S1720245   4.650   8.548   8.028 -0.1092 -0.1782 -0.1075
   34TAL   C16520246   4.892   8.869   7.953  0.4984 -0.1059 -0.2597
   34TAL   C16620247   5.025   8.867   7.875 -0.0484  0.1502  0.0407
   34TAL   C16720248   5.061   9.013   7.840 -0.3423 -0.2775 -0.0644
   34TAL   C16820249   5.193   9.029   7.780 -0.2565  0.1798 -0.1239
   34TAL   C16920250   5.214   8.965   7.642 -0.2044 -0.1236 -0.0459
   34TAL   C17020251   5.359   8.956   7.591  0.2273 -0.3994 -0.3079
   35HTM   C17120252   4.571   8.809   8.013 -0.0148 -0.0293  0.0756
   35HTM   C17220253   4.453   8.780   8.074 -0.0794 -0.1974 -0.1287
   35HTM   C17320254   4.350   8.878   8.052 -0.1168 -0.2379 -0.1345
   35HTM   C17420255   4.389   8.982   7.974 -0.0811 -0.1010  0.0653
   35HTM    S1820256   4.561   8.965   7.921  0.0038  0.0919  0.2779
   36TAL   C17520257   4.211   8.870   8.117  0.0832 -0.3426 -0.7688
   36TAL   C17620258   4.105   8.789   8.042 -0.2651  0.0892  0.6349
   36TAL   C17720259   3.964   8.825   8.091  0.0013 -0.1520 -0.0555
   36TAL   C17820260   3.854   8.767   8.005  0.1387 -0.0655  0.0702
   36TAL   C17920261   3.710   8.817   8.040  0.5858 -0.2506  0.4115
   36TAL   C18020262   3.611   8.739   7.961 -0.0552 -0.3416  0.4638
   37HTM   C18120263   4.307   9.089   7.917  0.0118  0.0939  0.5169
   37HTM   C18220264   4.223   9.076   7.810  0.3278  0.0663  0.2713
   37HTM   C18320265   4.129   9.184   7.797  0.5591  0.2127 -0.2074
   37HTM   C18420266   4.141   9.279   7.894  0.4198  0.3518 -0.3272
   37HTM    S1920267   4.273   9.240   8.010 -0.0181  0.3085  0.1600
   38TAL   C18520268   4.026   9.160   7.689 -0.5718 -0.5007  0.2641
   38TAL   C18620269   3.924   9.046   7.710  0.3047 -0.6223 -0.5197
   38TAL   C18720270   3.838   9.036   7.588 -0.6834 -0.1097  0.2403
   38TAL   C18820271   3.808   8.896   7.543 -0.0564 -0.6845 -0.3010
   38TAL   C18920272   3.680   8.877   7.472  0.7622  0.0966 -0.2167
   38TAL   C19020273   3.644   8.739   7.418 -0.2156  0.5412 -0.2922
   39HTM   C19120274   4.084   9.415   7.910 -0.1818  0.3542  0.0358
   39HTM   C19220275   4.146   9.529   7.951 -0.5150  0.4200  0.3641
   39HTM   C19320276   4.066   9.647   7.937 -0.7269  0.2760  0.3593
   39HTM   C19420277   3.942   9.624   7.885 -0.5557  0.1004  0.0278
   39HTM    S2020278   3.917   9.448   7.850 -0.1095  0.1034 -0.3070
   40TAL   C19520279   4.123   9.777   7.989 -0.1528 -0.1105  0.3521
   40TAL   C19620280   4.190   9.867   7.887 -0.4870 -0.2239  0.2376
   40TAL   C19720281   4.250   9.984   7.967 -0.8893  0.0505  0.1357
   40TAL   C19820282   4.344  10.068   7.877  0.2259 -0.7909  0.1656
   40TAL   C19920283   4.423  10.171   7.954  0.5431  0.3214 -0.5452
   40TAL   C20020284   4.362  10.260   8.065  0.1164  0.0386  0.4070
   41HTM   C20120285   3.830   9.711   7.846  0.0128  0.1752 -0.5403
   41HTM   C20220286   3.724   9.673   7.769 -0.0850  0.3542 -0.4942
   41HTM   C20320287   3.613   9.765   7.774 -0.1059  0.3103 -0.0899
   41HTM   C20420288   3.634   9.872   7.855 -0.0238  0.0979  0.1728
   41HTM    S2120289   3.797   9.866   7.932  0.0867 -0.0643 -0.0724
   42TAL   C20520290   3.489   9.750   7.692  0.0422 -0.0453  0.3274
   42TAL   C20620291   3.500   9.811   7.552  0.0089  0.1586  0.0721
   42TAL   C20720292   3.378   9.812   7.461 -0.2238  0.2197  0.0649
   42TAL   C20820293   3.259   9.887   7.506  0.2492  0.3522 -0.2525
   42TAL   C20920294   3.272  10.038   7.503 -0.1987  0.3253  0.2222
   42TAL   C21020295   3.157  10.120   7.553  0.6069 -0.1904  0.5304
   43HTM   C21120296   3.545   9.982   7.894  0.1282  0.0542  0.4756
   43HTM   C21220297   3.409   9.987   7.887  0.1597  0.3535  0.0525
   43HTM   C21320298   3.353  10.114   7.924  0.3371  0.5618 -0.3829
   43HTM   C21420299   3.447  10.207   7.961  0.4409  0.4215 -0.2917
   43HTM    S2220300   3.614  10.139   7.950  0.3217  0.0119  0.3562
   44TAL   C21520301   3.199  10.122   7.934 -0.5888  0.4812  0.3185
   44TAL   C21620302   3.118  10.242   7.899 -0.1297 -0.1016 -0.3640
   44TAL   C21720303   2.977  10.252   7.956  0.2101  0.5183  0.0619
   44TAL   C21820304   2.896  10.354   7.882  0.3443 -0.3773 -0.0741
   44TAL   C21920305   2.744  10.337   7.910  0.3458 -0.0863  0.3482
   44TAL   C22020306   2.673  10.464   7.871 -0.3040  0.0700  0.2645
   45HTM   C22120307   3.429  10.347   7.992  0.1401 -0.3481  0.6125
   45HTM   C22220308   3.358  10.441   7.923 -0.3139 -0.7567  0.5205
   45HTM   C22320309   3.370  10.574   7.977 -0.6453 -0.5777  0.1595
   45HTM   C22420310   3.451  10.581   8.087 -0.4441 -0.0326 -0.0229
   45HTM    S2320311   3.518  10.420   8.131  0.1843  0.2995  0.2489
   46TAL   C22520312   3.307  10.698   7.909  0.8414 -0.4296  0.5326
   46TAL   C22620313   3.198  10.675   7.799 -0.3116 -0.4545 -0.3591
   46TAL   C22720314   3.150  10.815   7.746  0.3507 -0.0776 -0.1681
   46TAL   C22820315   3.044  10.830   7.633  0.4668 -0.2013 -0.1135
   46TAL   C22920316   2.915  10.760   7.662 -0.0652 -0.0410 -0.3652
   46TAL   C23020317   2.800  10.796   7.568  0.2298 -0.4091 -0.1227
   47HTM   C23120318   3.510  10.693   8.156 -0.0136 -0.3697 -0.1154
   47HTM   C23220319   3.451  10.812   8.187 -0.3047 -0.4033 -0.5317
   47HTM   C23320320   3.536  10.901   8.262 -0.6374 -0.0663 -0.5507
   47HTM   C23420321   3.660  10.849   8.288 -0.6000  0.2241 -0.1488
   47HTM    S2420322   3.678  10.683   8.220 -0.1382  0.0937  0.2879
   48TAL   C23520323   3.491  11.041   8.289  0.1162 -0.3239 -0.1563
   48TAL   C23620324   3.590  11.147   8.338 -0.4355 -0.0029 -0.2965
   48TAL   C23720325   3.688  11.207   8.233 -0.0422  0.3445 -0.1257
   48TAL   C23820326   3.805  11.281   8.292  0.6095 -0.2729  0.3342
   48TAL   C23920327   3.887  11.357   8.191  0.1473  0.3348  0.1426
   48TAL   C24020328   4.000  11.439   8.250 -0.1438  0.0198  0.3634
    1HTM     C120329   5.009   3.138   0.316  0.2674  0.1103 -0.4706
    1HTM     C220330   5.124   3.106   0.250  0.1957 -0.2242 -0.4319
    1HTM     C320331   5.114   2.984   0.173  0.0119 -0.4448 -0.0636
    1HTM     C420332   4.992   2.924   0.180 -0.0563 -0.2783  0.1785
    1HTM     S120333   4.879   3.017   0.285  0.1072  0.1733 -0.0416
    2TAL     C520334   5.241   2.943   0.097  0.5901 -0.4815 -0.2790
    2TAL     C620335   5.342   2.851   0.163  0.9112  0.0694 -0.3060
    2TAL     C720336   5.450   2.815   0.073  0.1521 -0.4666 -0.4257
    2TAL     C820337   5.573   2.766   0.137  0.5337  0.1218  0.1673
    2TAL     C920338   5.658   2.698   0.029 -0.3931  0.0751  0.2498
    2TAL    C1020339   5.782   2.629   0.077 -0.2566  0.4699 -0.1546
    3HTM    C1120340   4.936   2.803   0.110 -0.1424 -0.0613  0.0685
    3HTM    C1220341   4.803   2.782   0.084 -0.0970 -0.2719  0.0043
    3HTM    C1320342   4.777   2.657   0.018  0.1411 -0.2866 -0.0661
    3HTM    C1420343   4.888   2.582  -0.006  0.2769 -0.0873 -0.0552
    3HTM     S220344   5.037   2.665   0.052  0.1135  0.1363  0.0449
    4TAL    C1520345   4.637   2.602  -0.004  0.2030 -1.0336  0.4596
    4TAL    C1620346   4.522   2.628   0.099  0.1175  0.5533 -0.0333
    4TAL    C1720347   4.380   2.598   0.043  0.0454  0.4831  0.1665
    4TAL    C1820348   4.273   2.693   0.103 -0.0369  0.2472 -0.2255
    4TAL    C1920349   4.144   2.665   0.035  0.0974  0.1386 -0.7596
    4TAL    C2020350   4.030   2.760   0.060  0.3457 -0.1001  0.5341
    5HTM    C2120351   4.911   2.461  -0.084 -0.1118 -0.0535 -0.0801
    5HTM    C2220352   4.825   2.370  -0.137 -0.0446 -0.0954 -0.1178
    5HTM    C2320353   4.889   2.270  -0.219  0.0534 -0.1254 -0.0052
    5HTM    C2420354   5.024   2.286  -0.229  0.0605 -0.1067  0.1194
    5HTM     S320355   5.081   2.429  -0.135 -0.0569 -0.0490  0.1033
    6TAL    C2520356   4.811   2.163  -0.291  0.9788 -0.0852  0.0039
    6TAL    C2620357   4.668   2.113  -0.266  0.0981  0.0206 -0.1468
    6TAL    C2720358   4.625   2.075  -0.122  0.0715  0.2638  0.1730
    6TAL    C2820359   4.484   2.021  -0.112 -0.0428 -0.0168 -0.0752
    6TAL    C2920360   4.372   2.117  -0.166 -0.7915  0.2548 -0.2921
    6TAL    C3020361   4.331   2.222  -0.070  0.1734 -0.3179  0.7969
    7HTM    C3120362   5.127   2.205  -0.277  0.2946  0.3614  0.2722
    7HTM    C3220363   5.173   2.190  -0.404  0.0122  0.3353  0.1721
    7HTM    C3320364   5.291   2.108  -0.414 -0.1678  0.1070 -0.1049
    7HTM    C3420365   5.335   2.060  -0.294 -0.0225 -0.0407 -0.2175
    7HTM     S420366   5.230   2.115  -0.158  0.3557  0.0980  0.0208
    8TAL    C3520367   5.350   2.089  -0.549  0.4570 -0.0618 -0.1717
    8TAL    C3620368   5.469   2.182  -0.591  0.2321 -0.0141 -0.5310
    8TAL    C3720369   5.444   2.332  -0.584  0.0596  0.1395  0.7873
    8TAL    C3820370   5.316   2.386  -0.654 -0.0419 -0.1065 -1.0146
    8TAL    C3920371   5.305   2.536  -0.684 -0.0444  0.1539  0.2468
    8TAL    C4020372   5.204   2.561  -0.792  0.0356 -0.1301 -0.0565
    9HTM    C4120373   5.458   1.986  -0.268 -0.1923 -0.0180 -0.3930
    9HTM    C4220374   5.553   2.023  -0.178 -0.2661  0.1963 -0.4015
    9HTM    C4320375   5.667   1.935  -0.175 -0.1838  0.3076 -0.2313
    9HTM    C4420376   5.659   1.832  -0.264 -0.0469  0.1783 -0.0925
    9HTM     S520377   5.505   1.837  -0.358 -0.0115 -0.0965 -0.1673
   10TAL    C4520378   5.788   1.956  -0.087 -0.1747 -0.2743 -0.5655
   10TAL    C4620379   5.825   2.096  -0.036 -0.1142 -0.0099 -0.1555
   10TAL    C4720380   5.978   2.093  -0.037 -0.7290 -0.0206 -0.7031
   10TAL    C4820381   6.028   2.221   0.014 -0.4759  0.5051 -0.5797
   10TAL    C4920382   6.172   2.222  -0.010 -0.1278  0.7315 -0.1034
   10TAL    C5020383   6.249   2.344   0.038  0.1671 -0.3369 -0.1855
   11HTM    C5120384   5.748   1.729  -0.301  0.0375 -0.1821  0.2721
   11HTM    C5220385   5.711   1.612  -0.361  0.0815 -0.5326  0.9155
   11HTM    C5320386   5.823   1.532  -0.404  0.1078 -0.5120  0.9441
   11HTM    C5420387   5.944   1.587  -0.377  0.0837 -0.1457  0.3222
   11HTM     S620388   5.927   1.747  -0.294  0.0254  0.2042 -0.3527
   12TAL    C5520389   5.802   1.397  -0.483 -0.0582 -0.7686 -0.4476
   12TAL    C5620390   5.671   1.332  -0.521  0.0881 -0.1566 -0.2963
   12TAL    C5720391   5.584   1.410  -0.614  0.2049 -0.5288 -0.2534
   12TAL    C5820392   5.480   1.503  -0.566 -0.2083  0.3472 -0.3161
   12TAL    C5920393   5.410   1.586  -0.669 -0.1837  0.1494  0.7306
   12TAL    C6020394   5.303   1.697  -0.624 -0.1511  0.0931 -0.2663
   13HTM    C6120395   6.080   1.553  -0.403  0.2496  0.2251 -0.3831
   13HTM    C6220396   6.127   1.425  -0.413  0.1016  0.1997 -0.7558
   13HTM    C6320397   6.270   1.418  -0.432  0.0792  0.0913 -0.8874
   13HTM    C6420398   6.331   1.540  -0.435  0.2101  0.0340 -0.6149
   13HTM     S720399   6.213   1.674  -0.415  0.3733  0.1130 -0.1677
   14TAL    C6520400   6.335   1.288  -0.453 -0.8156 -0.6183 -0.1283
   14TAL    C6620401   6.481   1.273  -0.411  0.0895  0.0954 -0.7140
   14TAL    C6720402   6.563   1.153  -0.462  0.3023 -0.2744 -0.2510
   14TAL    C6820403   6.502   1.023  -0.449  0.4673  0.5387 -1.0414
   14TAL    C6920404   6.559   0.904  -0.522  0.2310 -0.1065 -0.0002
   14TAL    C7020405   6.481   0.782  -0.506  0.1863  0.1125 -0.0939
   15HTM    C7120406   6.470   1.577  -0.449 -0.0901 -0.0218  0.0568
   15HTM    C7220407   6.541   1.618  -0.558 -0.0527  0.2766  0.1941
   15HTM    C7320408   6.674   1.664  -0.527 -0.1204  0.3448  0.3848
   15HTM    C7420409   6.704   1.657  -0.394 -0.2094  0.0983  0.3927
   15HTM     S820410   6.566   1.592  -0.298 -0.2150 -0.2416  0.1583
   16TAL    C7520411   6.747   1.729  -0.648 -0.0379 -0.3163 -0.7818
   16TAL    C7620412   6.900   1.692  -0.664  1.0948 -0.1198  0.2241
   16TAL    C7720413   6.952   1.548  -0.684 -0.1831  0.0688 -0.2215
   16TAL    C7820414   7.103   1.524  -0.667 -0.1576 -0.1093 -0.2638
   16TAL    C7920415   7.187   1.534  -0.794  0.1595 -0.4189 -0.1957
   16TAL    C8020416   7.335   1.555  -0.760  0.7201  0.0953  0.7681
   17HTM    C8120417   6.806   1.730  -0.320  0.3953  0.0721  0.0917
   17HTM    C8220418   6.811   1.864  -0.294  0.4532  0.0497  0.1960
   17HTM    C8320419   6.932   1.906  -0.229  0.4296 -0.0697  0.3161
   17HTM    C8420420   7.020   1.804  -0.205  0.3537 -0.1384  0.3048
   17HTM     S920421   6.956   1.647  -0.265  0.3059 -0.0568  0.1385
   18TAL    C8520422   6.924   2.054  -0.182 -0.0822 -0.4272 -0.1931
   18TAL    C8620423   6.804   2.129  -0.112 -0.1039 -0.6015 -0.5567
   18TAL    C8720424   6.750   2.063   0.020 -0.2742  0.0804  0.3078
   18TAL    C8820425   6.641   2.140   0.091  0.0663 -0.7308 -0.1208
   18TAL    C8920426   6.604   2.107   0.232 -0.8972  0.4163 -0.5662
   18TAL    C9020427   6.516   2.205   0.301  0.2294  0.0739 -0.3334
   19HTM    C9120428   7.155   1.827  -0.165  0.0348 -0.1042 -0.0009
   19HTM    C9220429   7.267   1.785  -0.231  0.0947 -0.4737  0.3347
   19HTM    C9320430   7.390   1.821  -0.164  0.0241 -0.4987  0.4792
   19HTM    C9420431   7.371   1.890  -0.048 -0.0895 -0.1482  0.2531
   19HTM    S1020432   7.196   1.916  -0.014 -0.1163  0.2436 -0.1624
   20TAL    C9520433   7.517   1.748  -0.200 -0.2928 -0.8790 -0.1360
   20TAL    C9620434   7.534   1.700  -0.341 -0.3617 -0.2596 -0.1219
   20TAL    C9720435   7.661   1.630  -0.364  0.0743  0.0551 -0.6346
   20TAL    C9820436   7.689   1.591  -0.512  0.1829  0.9275  0.1831
   20TAL    C9920437   7.824   1.517  -0.543 -0.0277 -0.6272 -0.0024
   20TAL   C10020438   7.825   1.440  -0.676  0.0488 -0.0080 -0.5075
   21HTM   C10120439   7.461   1.946   0.050  0.3423 -0.0211 -0.3671
   21HTM   C10220440   7.434   1.968   0.182  0.1423 -0.6437 -0.3040
   21HTM   C10320441   7.547   2.015   0.258  0.0148 -0.9494  0.0819
   21HTM   C10420442   7.660   2.030   0.183  0.1180 -0.5600  0.3130
   21HTM    S1120443   7.632   1.985   0.011  0.3861  0.2292  0.0592
   22TAL   C10520444   7.529   2.080   0.399 -0.9114 -0.1985 -0.0396
   22TAL   C10620445   7.405   2.173   0.410 -0.4267  0.8421  0.0042
   22TAL   C10720446   7.390   2.286   0.309 -0.5156 -0.2775  0.2937
   22TAL   C10820447   7.275   2.372   0.350 -0.0461  0.1293  0.3039
   22TAL   C10920448   7.301   2.511   0.299 -0.5049 -0.3232 -1.1600
   22TAL   C11020449   7.201   2.611   0.355 -0.3812  0.4208  0.1174
   23HTM   C11120450   7.793   2.080   0.216 -0.1207  0.3568 -0.0815
   23HTM   C11220451   7.824   2.188   0.294 -0.0050  0.2426  0.0302
   23HTM   C11320452   7.957   2.239   0.271  0.1335 -0.0168  0.2450
   23HTM   C11420453   8.027   2.171   0.176  0.1231 -0.1003  0.2972
   23HTM    S1220454   7.930   2.035   0.107 -0.0634  0.1441  0.0773
   24TAL   C11520455   8.014   2.358   0.348 -0.3826  0.2828  0.4492
   24TAL   C11620456   7.940   2.418   0.467  0.6999  0.3670  0.5925
   24TAL   C11720457   7.796   2.464   0.439 -0.3464 -0.3109 -0.2948
   24TAL   C11820458   7.724   2.533   0.559  0.0566  0.4856 -0.1001
   24TAL   C11920459   7.569   2.541   0.541 -0.2026 -0.1383 -0.7280
   24TAL   C12020460   7.492   2.616   0.650 -0.0017  0.0498  0.0001
   25HTM   C12120461   8.164   2.176   0.125 -0.1396 -0.0113  0.0013
   25HTM   C12220462   8.237   2.063   0.100 -0.2809 -0.0023 -0.4456
   25HTM   C12320463   8.372   2.090   0.057 -0.3548  0.0030 -0.6778
   25HTM   C12420464   8.402   2.222   0.050 -0.2698 -0.0024 -0.4080
   25HTM    S1320465   8.262   2.325   0.098 -0.0881 -0.0144  0.1648
   26TAL   C12520466   8.461   1.976   0.021  0.0067  0.0370 -0.0639
   26TAL   C12620467   8.395   1.844  -0.011  0.4085  0.4535  0.4461
   26TAL   C12720468   8.499   1.737  -0.041  0.5317  0.2701  0.1623
   26TAL   C12820469   8.444   1.623  -0.125 -0.2254  0.1186 -0.0234
   26TAL   C12920470   8.408   1.650  -0.269 -0.4503  0.1266 -0.4668
   26TAL   C13020471   8.371   1.515  -0.334 -0.1908 -0.2089 -0.2236
   27HTM   C13120472   8.526   2.278  -0.006  0.1142  0.0576 -0.4191
   27HTM   C13220473   8.652   2.278   0.045  0.0405  0.0849 -0.2347
   27HTM   C13320474   8.741   2.371  -0.021  0.0830  0.1971 -0.0205
   27HTM   C13420475   8.682   2.441  -0.122  0.1888  0.2554 -0.0419
   27HTM    S1420476   8.508   2.396  -0.141  0.2425  0.1724 -0.3364
   28TAL   C13520477   8.879   2.384   0.027 -0.0162 -0.3646 -0.7679
   28TAL   C13620478   8.983   2.272   0.006 -0.5680  0.2860 -0.2594
   28TAL   C13720479   9.054   2.269  -0.133  0.1337 -0.2334  0.3116
   28TAL   C13820480   9.119   2.403  -0.175 -0.2713  0.3477  0.8823
   28TAL   C13920481   9.229   2.380  -0.266 -0.0475  0.7407 -0.2619
   28TAL   C14020482   9.339   2.488  -0.293 -0.4363  0.3706 -0.3025
   29HTM   C14120483   8.739   2.539  -0.208  0.0393 -0.2950  0.1190
   29HTM   C14220484   8.747   2.522  -0.343 -0.1836 -0.0966  0.0806
   29HTM   C14320485   8.828   2.621  -0.410 -0.2627 -0.0213  0.0949
   29HTM   C14420486   8.882   2.713  -0.325 -0.1007 -0.1620  0.1453
   29HTM    S1520487   8.835   2.682  -0.154  0.1680 -0.4027  0.1770
   30TAL   C14520488   8.844   2.623  -0.559  0.0960 -0.1450 -0.0347
   30TAL   C14620489   8.882   2.493  -0.633  0.8036 -0.1787  0.2097
   30TAL   C14720490   8.973   2.392  -0.562  0.0772  0.6625 -0.4445
   30TAL   C14820491   8.985   2.263  -0.636  0.7487 -0.1821  0.4126
   30TAL   C14920492   9.070   2.160  -0.570  0.1651 -0.4676  0.2851
   30TAL   C15020493   9.064   2.023  -0.628 -0.2146  0.8781  0.3936
   31HTM   C15120494   8.992   2.809  -0.332  0.2650  0.0221  0.1598
   31HTM   C15220495   8.989   2.938  -0.376  0.3428 -0.0151  0.0429
   31HTM   C15320496   9.114   3.008  -0.361  0.4539 -0.1502 -0.2446
   31HTM   C15420497   9.213   2.932  -0.305  0.4612 -0.2162 -0.3467
   31HTM    S1620498   9.155   2.765  -0.268  0.3271 -0.1117 -0.0862
   32TAL   C15520499   9.119   3.153  -0.403 -0.2392 -0.2147  0.4827
   32TAL   C15620500   9.030   3.249  -0.318 -0.0255  0.2779 -0.6199
   32TAL   C15720501   9.043   3.389  -0.370  0.5197 -0.8245 -0.5305
   32TAL   C15820502   8.958   3.494  -0.303  0.5282 -0.0334 -0.4259
   32TAL   C15920503   8.965   3.641  -0.347  0.6973 -0.0568  0.0687
   32TAL   C16020504   9.095   3.714  -0.318  0.8573 -0.4083  0.2808
   33HTM   C16120505   9.355   2.952  -0.288 -0.0169 -0.0534  0.0322
   33HTM   C16220506   9.446   2.876  -0.219  0.0184  0.1926  0.2599
   33HTM   C16320507   9.581   2.924  -0.230 -0.0244  0.3092  0.2398
   33HTM   C16420508   9.594   3.036  -0.307 -0.0923  0.1520 -0.0025
   33HTM    S1720509   9.434   3.091  -0.372 -0.1075 -0.1577 -0.2265
   34TAL   C16520510   9.696   2.846  -0.167 -0.4593 -0.3941 -0.7304
   34TAL   C16620511   9.776   2.925  -0.072  0.0409  0.0004 -0.0785
   34TAL   C16720512   9.915   2.864  -0.039 -0.1021 -0.3920  0.2765
   34TAL   C16820513  10.029   2.965  -0.049  0.3997 -0.0336  0.4766
   34TAL   C16920514  10.170   2.906  -0.056 -0.0212  0.0542 -0.3826
   34TAL   C17020515  10.282   3.005  -0.077  0.1399 -0.2095  0.8904
   35HTM   C17120516   9.707   3.127  -0.319  0.0009  0.0818 -0.2448
   35HTM   C17220517   9.733   3.245  -0.256  0.0347  0.2238 -0.5193
   35HTM   C17320518   9.871   3.286  -0.264  0.0417  0.1781 -0.6351
   35HTM   C17420519   9.950   3.199  -0.333  0.0133  0.0014 -0.4485
   35HTM    S1820520   9.855   3.058  -0.395 -0.0248 -0.1221 -0.1094
   36TAL   C17520521   9.920   3.415  -0.200 -0.3570  0.8074  0.1858
   36TAL   C17620522   9.941   3.413  -0.050 -0.8116  0.4451 -0.2649
   36TAL   C17720523  10.031   3.513   0.012  0.6263 -0.1916 -0.1359
   36TAL   C17820524  10.180   3.530  -0.038 -0.3214 -0.6286  0.6343
   36TAL   C17920525  10.278   3.409  -0.046 -0.0633 -0.4406  0.0216
   36TAL   C18020526  10.407   3.472  -0.098 -0.0268  0.1006 -0.0340
   37HTM   C18120527  10.090   3.194  -0.371  0.2408 -0.0213  0.0302
   37HTM   C18220528  10.159   3.084  -0.411  0.1352  0.1616 -0.6843
   37HTM   C18320529  10.288   3.113  -0.466 -0.1546  0.4450 -1.2202
   37HTM   C18420530  10.318   3.246  -0.469 -0.2701  0.4782 -0.9151
   37HTM    S1920531  10.184   3.345  -0.401 -0.0197  0.1515  0.0809
   38TAL   C18520532  10.388   3.006  -0.498  0.3310 -0.1051  0.5178
   38TAL   C18620533  10.351   2.897  -0.588 -0.0259  0.2259 -0.1934
   38TAL   C18720534  10.313   2.932  -0.734 -0.6180  0.4581 -0.6922
   38TAL   C18820535  10.307   2.807  -0.829  0.4672  0.2535 -0.0154
   38TAL   C18920536  10.200   2.711  -0.788  0.2200 -0.2721  0.6241
   38TAL   C19020537  10.197   2.586  -0.872  0.7971 -0.1344 -0.5689
   39HTM   C19120538  10.433   3.324  -0.514  0.0671 -0.4214 -0.0759
   39HTM   C19220539  10.436   3.459  -0.527 -0.2756 -0.4401 -0.3867
   39HTM   C19320540  10.560   3.509  -0.581 -0.3869 -0.2476 -0.4649
   39HTM   C19420541  10.651   3.412  -0.609 -0.1291 -0.0821 -0.2136
   39HTM    S2020542  10.587   3.248  -0.570  0.2775 -0.1573  0.1437
   40TAL   C19520543  10.576   3.660  -0.585 -0.3377 -0.6071 -0.1682
   40TAL   C19620544  10.555   3.747  -0.462  0.3588 -0.2578  0.3529
   40TAL   C19720545  10.418   3.761  -0.415 -0.0352 -0.0550 -0.3770
   40TAL   C19820546  10.403   3.867  -0.306 -0.1997  0.3956 -0.6123
   40TAL   C19920547  10.274   3.860  -0.223 -0.1501 -0.0680 -0.2148
   40TAL   C20020548  10.276   3.967  -0.111 -0.1435 -0.5042 -0.2418
   41HTM   C20120549  10.791   3.426  -0.650  0.0880  0.1940 -0.6659
   41HTM   C20220550  10.858   3.533  -0.700  0.0297 -0.0640 -1.3070
   41HTM   C20320551  10.999   3.512  -0.716  0.0587 -0.0429 -1.0743
   41HTM   C20420552  11.040   3.388  -0.677  0.1391  0.2313 -0.2559
   41HTM    S2120553  10.902   3.288  -0.618  0.1847  0.4859  0.2892
   42TAL   C20520554  11.095   3.627  -0.748  0.3888  0.0623  0.3218
   42TAL   C20620555  11.051   3.771  -0.741 -0.3277 -0.3197 -0.0372
   42TAL   C20720556  11.003   3.815  -0.598  0.0223 -0.0037  0.4745
   42TAL   C20820557  10.935   3.944  -0.593  0.4714 -0.2104 -0.0710
   42TAL   C20920558  11.015   4.075  -0.606 -0.0252 -0.2381  0.0589
   42TAL   C21020559  11.126   4.094  -0.500 -0.0278 -0.3631  0.4824
   43HTM   C21120560  11.171   3.325  -0.667 -0.0736 -0.1363 -0.0157
   43HTM   C21220561  11.231   3.280  -0.553 -0.0304  0.1434  0.0730
   43HTM   C21320562  11.373   3.261  -0.567  0.0428  0.5671  0.2089
   43HTM   C21420563  11.421   3.291  -0.691  0.0551  0.6105  0.2246
   43HTM    S2220564  11.290   3.347  -0.801 -0.0251  0.1156  0.0669
   44TAL   C21520565  11.459   3.202  -0.457 -0.1690 -0.0797  0.3006
   44TAL   C21620566  11.461   3.283  -0.318  0.0194 -0.2587 -0.1346
   44TAL   C21720567  11.507   3.206  -0.189  0.3322  0.4770 -0.6138
   44TAL   C21820568  11.453   3.067  -0.139  0.1313 -1.2303  0.4798
   44TAL   C21920569  11.297   3.057  -0.125 -0.0506 -0.2657  0.2936
   44TAL   C22020570  11.263   2.983  -0.007 -0.9141 -0.3496  0.0933
   45HTM   C22120571  11.561   3.308  -0.742 -0.3391 -0.0005  0.1364
   45HTM   C22220572  11.585   3.314  -0.876 -0.5085 -0.5796  0.0792
   45HTM   C22320573  11.722   3.341  -0.909 -0.4705 -1.1234 -0.2189
   45HTM   C22420574  11.803   3.356  -0.801 -0.2720 -0.9588 -0.3886
   45HTM    S2320575  11.712   3.337  -0.647 -0.1168 -0.0976 -0.1844
   46TAL   C22520576  11.756   3.368  -1.051 -0.4456 -0.5401 -0.4117
   46TAL   C22620577  11.716   3.516  -1.089 -0.5262 -0.8108  0.3113
   46TAL   C22720578  11.645   3.545  -1.220  0.1577 -0.0158  0.6070
   46TAL   C22820579  11.513   3.468  -1.248  0.4483  0.2934 -0.2686
   46TAL   C22920580  11.396   3.492  -1.150  0.0831 -0.2970  0.3371
   46TAL   C23020581  11.288   3.390  -1.169  0.0612  0.2019  0.0344
   47HTM   C23120582  11.944   3.399  -0.794 -0.3333 -0.1141 -0.0472
   47HTM   C23220583  12.003   3.458  -0.686 -0.4536  0.1414 -0.1202
   47HTM   C23320584  12.141   3.494  -0.708 -0.4365  0.1129 -0.0596
   47HTM   C23420585  12.186   3.462  -0.832 -0.3033 -0.1643  0.0600
   47HTM    S2420586  12.058   3.384  -0.932 -0.1879 -0.4125  0.1058
   48TAL   C23520587  12.234   3.539  -0.606 -0.3592  0.1964  0.2110
   48TAL   C23620588  12.260   3.688  -0.603  0.2805  0.1220 -0.1406
   48TAL   C23720589  12.376   3.732  -0.516  0.0909  0.6031 -0.0611
   48TAL   C23820590  12.404   3.878  -0.560  0.5217 -0.0861 -0.0311
   48TAL   C23920591  12.521   3.937  -0.490  0.3902 -0.6744 -0.3408
   48TAL   C24020592  12.530   4.091  -0.505  0.8023  0.0023 -0.6177
    1HTM     C120593   1.091   8.565   0.166 -0.0868  0.3555 -0.4017
    1HTM     C220594   0.987   8.649   0.142  0.1564  0.4506 -1.1447
    1HTM     C320595   0.886   8.594   0.056  0.2691  0.1955 -1.1135
    1HTM     C420596   0.913   8.467   0.014  0.1119 -0.0945 -0.3466
    1HTM     S120597   1.069   8.407   0.081 -0.1933 -0.0667  0.4014
    2TAL     C520598   0.765   8.680   0.013  0.4552  0.5563  0.5435
    2TAL     C620599   0.671   8.722   0.128  0.2062  0.3342  0.0427
    2TAL     C720600   0.548   8.792   0.068  0.2273 -0.5396  0.4728
    2TAL     C820601   0.451   8.730  -0.033 -0.0078 -0.0376  0.6923
    2TAL     C920602   0.368   8.601   0.008  0.4884  0.2059 -0.8278
    2TAL    C1020603   0.440   8.473  -0.010 -0.2411  0.8007  0.1147
    3HTM    C1120604   0.844   8.378  -0.073  0.2105 -0.0279 -0.0192
    3HTM    C1220605   0.862   8.385  -0.208  0.0765  0.2265 -0.0243
    3HTM    C1320606   0.790   8.284  -0.282 -0.0882  0.4339 -0.1535
    3HTM    C1420607   0.718   8.200  -0.202 -0.0798  0.3386 -0.2470
    3HTM     S220608   0.735   8.242  -0.028  0.1385 -0.0247 -0.1789
    4TAL    C1520609   0.816   8.268  -0.431  0.5118 -1.3701  0.3174
    4TAL    C1620610   0.872   8.380  -0.520 -0.0563  0.7188 -0.5649
    4TAL    C1720611   1.021   8.381  -0.504 -0.5018 -0.5802 -0.8000
    4TAL    C1820612   1.088   8.515  -0.529 -0.8372  0.3737 -0.3108
    4TAL    C1920613   1.105   8.603  -0.408  0.0069  0.2981 -0.9435
    4TAL    C2020614   1.191   8.721  -0.418  0.1767 -0.1156  0.6699
    5HTM    C2120615   0.640   8.082  -0.232  0.1899 -0.2592 -0.1606
    5HTM    C2220616   0.540   8.067  -0.323  0.1952 -0.2713 -0.1640
    5HTM    C2320617   0.472   7.941  -0.316  0.0161 -0.1638  0.0262
    5HTM    C2420618   0.520   7.858  -0.218 -0.1257 -0.0698  0.1754
    5HTM     S320619   0.656   7.935  -0.128 -0.0434 -0.1101  0.0856
    6TAL    C2520620   0.354   7.912  -0.402  0.1936  0.4990  0.5312
    6TAL    C2620621   0.326   7.980  -0.530  0.1087 -0.4291  0.4871
    6TAL    C2720622   0.191   7.950  -0.598 -0.4672 -0.0311  0.6058
    6TAL    C2820623   0.136   8.075  -0.672  0.4633 -0.0035 -0.2359
    6TAL    C2920624   0.016   8.031  -0.759 -0.2824  0.1367 -0.2240
    6TAL    C3020625  -0.020   8.141  -0.862 -0.5374  0.0225 -0.3416
    7HTM    C3120626   0.494   7.717  -0.177 -0.0682  0.2410 -0.1876
    7HTM    C3220627   0.582   7.627  -0.125  0.0545  0.4499 -0.0372
    7HTM    C3320628   0.527   7.495  -0.107  0.2157  0.4194  0.2427
    7HTM    C3420629   0.397   7.484  -0.147  0.2160  0.1873  0.3068
    7HTM     S420630   0.333   7.641  -0.210  0.0111 -0.0124  0.0149
    8TAL    C3520631   0.606   7.381  -0.035 -0.1533 -0.1240  0.3352
    8TAL    C3620632   0.613   7.386   0.118 -0.0797  0.4569 -0.7971
    8TAL    C3720633   0.677   7.267   0.181 -0.6670 -0.2901  0.0084
    8TAL    C3820634   0.684   7.284   0.333 -0.4159 -0.6813 -0.4316
    8TAL    C3920635   0.714   7.158   0.404  0.1276 -0.0826  0.1055
    8TAL    C4020636   0.703   7.181   0.554  0.2890 -0.2284  0.5613
    9HTM    C4120637   0.316   7.367  -0.160  0.2475 -0.1945 -0.0607
    9HTM    C4220638   0.362   7.239  -0.173 -0.0506 -0.2961 -0.1125
    9HTM    C4320639   0.261   7.146  -0.218 -0.3176 -0.0811  0.0348
    9HTM    C4420640   0.139   7.203  -0.239 -0.2230  0.1849  0.1984
    9HTM     S520641   0.142   7.380  -0.204  0.2140  0.1842  0.1785
   10TAL    C4520642   0.304   7.003  -0.227 -0.5262 -0.6516 -0.2086
   10TAL    C4620643   0.373   6.954  -0.344  0.4821 -0.1839  0.1726
   10TAL    C4720644   0.372   6.804  -0.374 -0.1099 -0.0344  0.1000
   10TAL    C4820645   0.239   6.732  -0.364 -1.1195 -0.6374  0.8475
   10TAL    C4920646   0.253   6.582  -0.371  0.3596  0.0398 -0.1247
   10TAL    C5020647   0.128   6.506  -0.325  0.6759 -0.3474  0.1258
   11HTM    C5120648   0.013   7.137  -0.283  0.2431  0.0365 -0.0861
   11HTM    C5220649  -0.105   7.203  -0.301  0.1068 -0.0658  0.4182
   11HTM    C5320650  -0.217   7.116  -0.329  0.0997 -0.1504  0.7119
   11HTM    C5420651  -0.184   6.984  -0.332  0.2304 -0.1129  0.4312
   11HTM     S620652  -0.008   6.958  -0.300  0.3736  0.0339 -0.2307
   12TAL    C5520653  -0.352   7.176  -0.358  0.7338  0.2741  0.3700
   12TAL    C5620654  -0.369   7.324  -0.379  0.3967 -0.0089  0.3158
   12TAL    C5720655  -0.510   7.381  -0.410  0.0785  0.5785 -0.0896
   12TAL    C5820656  -0.506   7.526  -0.417  0.9247 -0.9078 -0.3109
   12TAL    C5920657  -0.638   7.589  -0.465  0.7451 -0.6788 -0.1583
   12TAL    C6020658  -0.609   7.736  -0.493  0.3984  0.0448  0.4328
   13HTM    C6120659  -0.258   6.866  -0.363  0.2260  0.2482 -0.7635
   13HTM    C6220660  -0.200   6.746  -0.392  0.0396  0.1106 -0.5708
   13HTM    C6320661  -0.294   6.639  -0.412 -0.1063  0.1042  0.1330
   13HTM    C6420662  -0.424   6.678  -0.398 -0.0316  0.2366  0.4773
   13HTM     S720663  -0.437   6.853  -0.358  0.2314  0.3811 -0.0656
   14TAL    C6520664  -0.234   6.496  -0.433  0.3664 -0.0663 -0.2624
   14TAL    C6620665  -0.222   6.416  -0.299  0.0627 -0.0433  0.2144
   14TAL    C6720666  -0.194   6.261  -0.299 -0.2314  0.0450 -0.1859
   14TAL    C6820667  -0.094   6.207  -0.403 -0.0952 -0.1234  0.2403
   14TAL    C6920668  -0.098   6.057  -0.408  0.3981  0.1700 -0.5281
   14TAL    C7020669  -0.004   5.983  -0.498 -0.5472  0.8542 -0.0775
   15HTM    C7120670  -0.544   6.597  -0.405 -0.0387  0.2637 -0.3370
   15HTM    C7220671  -0.671   6.640  -0.381 -0.0777  0.2680 -0.5484
   15HTM    C7320672  -0.770   6.536  -0.387 -0.0215  0.2012 -0.3223
   15HTM    C7420673  -0.719   6.413  -0.415  0.0609  0.1461  0.0612
   15HTM     S820674  -0.540   6.419  -0.436  0.0724  0.1750  0.1682
   16TAL    C7520675  -0.920   6.560  -0.345 -0.4638 -0.1546 -0.8638
   16TAL    C7620676  -0.952   6.686  -0.262 -0.5630 -0.4029  0.8447
   16TAL    C7720677  -0.912   6.688  -0.115  0.5402  0.0541  0.2554
   16TAL    C7820678  -0.950   6.572  -0.020  0.1323  0.3116  0.0589
   16TAL    C7920679  -0.850   6.566   0.098  0.1695  0.1242  0.1754
   16TAL    C8020680  -0.893   6.469   0.206 -0.8776 -0.3221 -0.0807
   17HTM    C8120681  -0.789   6.284  -0.431  0.0405  0.2517 -0.6844
   17HTM    C8220682  -0.920   6.250  -0.412  0.0763  0.2778 -0.3862
   17HTM    C8320683  -0.946   6.110  -0.430  0.1163  0.1848  0.2627
   17HTM    C8420684  -0.836   6.037  -0.463  0.1116  0.0872  0.4589
   17HTM     S920685  -0.689   6.141  -0.474  0.0547  0.1060 -0.1648
   18TAL    C8520686  -1.090   6.061  -0.420  0.2586 -0.5869  0.5354
   18TAL    C8620687  -1.178   6.066  -0.292 -0.1570  0.1736  0.6929
   18TAL    C8720688  -1.112   6.003  -0.165  0.0861  0.0839  0.7586
   18TAL    C8820689  -1.196   6.014  -0.036 -0.2066 -0.8083 -0.0845
   18TAL    C8920690  -1.267   6.146   0.009  0.2528 -0.3810  0.5459
   18TAL    C9020691  -1.173   6.262   0.023 -0.5354 -0.6200  0.2361
   19HTM    C9120692  -0.825   5.894  -0.495 -0.0355 -0.2350  0.5599
   19HTM    C9220693  -0.905   5.792  -0.453 -0.2313 -0.2437  0.1693
   19HTM    C9320694  -0.854   5.661  -0.485 -0.5145 -0.2196 -0.3867
   19HTM    C9420695  -0.735   5.663  -0.552 -0.5337 -0.1924 -0.4195
   19HTM    S1020696  -0.678   5.832  -0.580 -0.1937 -0.1956  0.2532
   20TAL    C9520697  -0.923   5.536  -0.425 -0.5414  0.1643  0.1147
   20TAL    C9620698  -1.077   5.530  -0.426  0.2072 -0.3431  0.1262
   20TAL    C9720699  -1.144   5.576  -0.294  0.1703  0.1759  0.5965
   20TAL    C9820700  -1.294   5.599  -0.291  0.2624 -0.5246  0.1401
   20TAL    C9920701  -1.330   5.668  -0.160 -0.1792  0.4915 -0.0665
   20TAL   C10020702  -1.475   5.658  -0.110  0.1098 -0.0494 -0.0997
   21HTM   C10120703  -0.648   5.557  -0.586  0.1916  0.0711 -0.1587
   21HTM   C10220704  -0.522   5.579  -0.632  0.2484 -0.0827 -0.0749
   21HTM   C10320705  -0.449   5.458  -0.660  0.1779 -0.1724  0.1311
   21HTM   C10420706  -0.520   5.344  -0.634  0.0666 -0.0872  0.2042
   21HTM    S1120707  -0.685   5.381  -0.573  0.0422  0.1146  0.0167
   22TAL   C10520708  -0.312   5.456  -0.730 -0.1178 -0.0053  0.6603
   22TAL   C10620709  -0.224   5.577  -0.726  0.7870  0.4241 -0.7636
   22TAL   C10720710  -0.265   5.712  -0.777  0.6009  0.1986 -0.4411
   22TAL   C10820711  -0.288   5.723  -0.922 -0.0480  0.6075 -0.2182
   22TAL   C10920712  -0.382   5.828  -0.956 -0.3911  0.4147  0.5856
   22TAL   C11020713  -0.536   5.820  -0.915  0.2663 -0.3746  0.3587
   23HTM   C11120714  -0.481   5.201  -0.618 -0.4503 -0.0560 -0.1129
   23HTM   C11220715  -0.554   5.103  -0.558 -0.2666 -0.0689  0.0930
   23HTM   C11320716  -0.494   4.972  -0.567 -0.0920  0.0017  0.2422
   23HTM   C11420717  -0.374   4.971  -0.633 -0.1424  0.0680  0.1498
   23HTM    S1220718  -0.329   5.136  -0.690 -0.4174  0.0465 -0.1352
   24TAL   C11520719  -0.571   4.861  -0.492 -0.1558 -0.3946  0.1373
   24TAL   C11620720  -0.606   4.746  -0.573 -0.8074  0.0682 -0.2757
   24TAL   C11720721  -0.634   4.618  -0.491 -0.1688 -0.0987 -0.0660
   24TAL   C11820722  -0.647   4.499  -0.582 -0.1793 -0.2077 -0.0817
   24TAL   C11920723  -0.674   4.365  -0.511 -0.4179 -0.1477 -0.7507
   24TAL   C12020724  -0.673   4.242  -0.602 -0.4342 -0.2649 -0.3969
   25HTM   C12120725  -0.264   4.870  -0.651  0.3027  0.2146  0.0169
   25HTM   C12220726  -0.272   4.737  -0.677  0.0501  0.2952 -0.3338
   25HTM   C12320727  -0.144   4.673  -0.690 -0.0706  0.1125 -0.6332
   25HTM   C12420728  -0.038   4.758  -0.674  0.0899 -0.1070 -0.5107
   25HTM    S1320729  -0.093   4.926  -0.641  0.4077 -0.1003 -0.0046
   26TAL   C12520730  -0.125   4.525  -0.684  0.3317 -0.1028 -0.4210
   26TAL   C12620731  -0.176   4.458  -0.810 -0.0511  0.6578 -0.2634
   26TAL   C12720732  -0.160   4.310  -0.793 -0.1698 -0.2069  0.3149
   26TAL   C12820733  -0.219   4.219  -0.904  0.1512 -0.1685  0.3896
   26TAL   C12920734  -0.374   4.218  -0.915  0.0359 -0.0469 -0.0796
   26TAL   C13020735  -0.408   4.097  -1.000 -0.2206  0.3397  0.4010
   27HTM   C13120736   0.102   4.734  -0.691 -0.4730  0.4147 -0.5195
   27HTM   C13220737   0.193   4.801  -0.615 -0.6692  0.5689 -0.4210
   27HTM   C13320738   0.329   4.782  -0.657 -0.5700  0.5872 -0.1097
   27HTM   C13420739   0.342   4.700  -0.765 -0.2982  0.4469  0.0292
   27HTM    S1420740   0.182   4.640  -0.822 -0.1453  0.2793 -0.2247
   28TAL   C13520741   0.436   4.832  -0.567  0.5344 -0.0733 -0.8452
   28TAL   C13620742   0.460   4.986  -0.561  0.5945 -0.2347 -0.3141
   28TAL   C13720743   0.513   5.061  -0.684  0.9535  0.5266  0.4557
   28TAL   C13820744   0.501   5.210  -0.663 -0.7115  0.4634  0.2581
   28TAL   C13920745   0.516   5.282  -0.798  0.5269 -0.5921  0.1543
   28TAL   C14020746   0.452   5.421  -0.803  0.1615 -0.0858  1.3081
   29HTM   C14120747   0.462   4.663  -0.840 -0.4783  0.0150 -0.1692
   29HTM   C14220748   0.503   4.540  -0.879 -0.5997 -0.0150 -0.2050
   29HTM   C14320749   0.626   4.541  -0.954 -0.3955 -0.1485  0.1249
   29HTM   C14420750   0.678   4.665  -0.973 -0.1184 -0.2204  0.4126
   29HTM    S1520751   0.575   4.792  -0.896 -0.0936 -0.1245  0.2883
   30TAL   C14520752   0.681   4.419  -1.031  0.3295 -0.3179  0.3103
   30TAL   C14620753   0.576   4.317  -1.086  0.0633 -0.6399  0.5878
   30TAL   C14720754   0.613   4.224  -1.208  1.0775  0.0219 -0.4676
   30TAL   C14820755   0.653   4.300  -1.333 -0.0679  1.0029 -0.1717
   30TAL   C14920756   0.658   4.212  -1.453  0.4701  0.3095 -0.1471
   30TAL   C15020757   0.717   4.285  -1.579  0.4269  0.0296 -0.8699
   31HTM   C15120758   0.792   4.712  -1.048 -0.0094  0.4272 -0.1420
   31HTM   C15220759   0.800   4.793  -1.157  0.1984  0.4735 -0.0927
   31HTM   C15320760   0.934   4.834  -1.189  0.2801  0.3297  0.0646
   31HTM   C15420761   1.028   4.784  -1.104  0.1346  0.1742  0.1357
   31HTM    S1620762   0.954   4.680  -0.976 -0.1190  0.1971  0.0083
   32TAL   C15520763   0.964   4.925  -1.307 -0.7134  0.0173 -0.1776
   32TAL   C15620764   1.008   5.068  -1.294  0.0217 -0.0535 -0.5306
   32TAL   C15720765   1.067   5.122  -1.427  0.2146 -0.3410 -0.3184
   32TAL   C15820766   1.207   5.087  -1.465 -0.6367  0.6624  0.5946
   32TAL   C15920767   1.322   5.125  -1.376 -0.0388 -0.0190 -0.5549
   32TAL   C16020768   1.454   5.056  -1.409  0.0864  0.1294  0.3162
   33HTM   C16120769   1.169   4.788  -1.122  0.2900 -0.3585 -0.2204
   33HTM   C16220770   1.269   4.844  -1.047  0.5602 -0.1798 -0.7110
   33HTM   C16320771   1.401   4.801  -1.085  0.4298 -0.1991 -1.1439
   33HTM   C16420772   1.402   4.712  -1.189  0.0602 -0.3925 -0.9838
   33HTM    S1720773   1.235   4.676  -1.247 -0.1536 -0.5667 -0.2676
   34TAL   C16520774   1.517   4.847  -1.008 -0.0585 -0.1120  0.1100
   34TAL   C16620775   1.560   4.994  -1.035  0.4094 -0.2494 -0.3079
   34TAL   C16720776   1.705   5.030  -1.010 -0.5530 -0.2151 -0.0044
   34TAL   C16820777   1.817   4.937  -1.073  0.2590 -0.1555  0.2703
   34TAL   C16920778   1.961   4.981  -1.055  0.1133  0.2410  0.2138
   34TAL   C17020779   2.047   4.869  -1.099  0.2322  0.0041  0.6285
   35HTM   C17120780   1.506   4.635  -1.248  0.1918  0.6135 -0.6814
   35HTM   C17220781   1.478   4.532  -1.332  0.0075  0.8430 -0.9055
   35HTM   C17320782   1.595   4.457  -1.372 -0.1810  0.4005 -0.6435
   35HTM   C17420783   1.711   4.504  -1.320 -0.1404 -0.1662 -0.2195
   35HTM    S1820784   1.683   4.647  -1.213  0.1412 -0.1856 -0.1171
   36TAL   C17520785   1.577   4.342  -1.468  0.0944  0.1034  0.3773
   36TAL   C17620786   1.482   4.354  -1.593 -0.7312  0.2974 -0.2344
   36TAL   C17720787   1.334   4.403  -1.596 -0.2498  0.2740  0.0343
   36TAL   C17820788   1.248   4.330  -1.486 -0.3475 -0.3868  0.2834
   36TAL   C17920789   1.123   4.403  -1.448  0.2999  0.4316 -0.3975
   36TAL   C18020790   1.019   4.318  -1.366  0.2799 -0.0787 -0.5614
   37HTM   C18120791   1.848   4.457  -1.327  0.0956  0.1802 -0.1266
   37HTM   C18220792   1.962   4.523  -1.292  0.0539  0.3362 -0.2842
   37HTM   C18320793   2.083   4.452  -1.326  0.0972  0.2627  0.0174
   37HTM   C18420794   2.061   4.332  -1.387  0.1716  0.0500  0.4053
   37HTM    S1920795   1.884   4.299  -1.406  0.1934 -0.0745  0.4196
   38TAL   C18520796   2.224   4.510  -1.313  0.2513 -0.0819  0.4401
   38TAL   C18620797   2.279   4.591  -1.426  0.0378  0.6051 -0.1068
   38TAL   C18720798   2.422   4.640  -1.412  0.2652 -0.2262  0.5589
   38TAL   C18820799   2.543   4.539  -1.374  0.2220  0.4043 -0.2430
   38TAL   C18920800   2.553   4.408  -1.459  0.0541 -0.4272 -1.0630
   38TAL   C19020801   2.640   4.302  -1.400 -0.6430  0.2004 -0.1741
   39HTM   C19120802   2.143   4.234  -1.449 -0.4634 -0.1305 -0.3294
   39HTM   C19220803   2.248   4.170  -1.390 -0.4717  0.0501 -0.1161
   39HTM   C19320804   2.302   4.063  -1.470 -0.2147  0.0539  0.0546
   39HTM   C19420805   2.240   4.047  -1.590 -0.0103 -0.1238 -0.0286
   39HTM    S2020806   2.105   4.165  -1.611 -0.1276 -0.3107 -0.3311
   40TAL   C19520807   2.420   3.980  -1.435 -0.9193 -0.1875  0.5982
   40TAL   C19620808   2.466   3.994  -1.295 -0.7202 -0.9136 -0.6548
   40TAL   C19720809   2.608   3.933  -1.270 -0.4358  0.5450  0.3857
   40TAL   C19820810   2.679   3.967  -1.139  0.1062 -0.4770  0.4273
   40TAL   C19920811   2.707   4.113  -1.127  0.3140 -0.1056 -0.8022
   40TAL   C20020812   2.763   4.129  -0.988 -0.4335 -0.7354 -0.4356
   41HTM   C20120813   2.261   3.958  -1.706  0.3453  0.2646  0.1003
   41HTM   C20220814   2.244   3.992  -1.836  0.3116  0.2903  0.1113
   41HTM   C20320815   2.276   3.886  -1.928  0.1465  0.2605  0.0882
   41HTM   C20420816   2.317   3.771  -1.868  0.0543  0.2122  0.0597
   41HTM    S2120817   2.319   3.788  -1.688  0.1697  0.2006  0.0596
   42TAL   C20520818   2.239   3.909  -2.078  0.0295 -0.5742  0.1075
   42TAL   C20620819   2.320   3.839  -2.197  0.5349 -0.8229 -0.6795
   42TAL   C20720820   2.476   3.845  -2.203 -0.3807  0.6125  0.0205
   42TAL   C20820821   2.557   3.760  -2.303 -0.5525 -0.3297  0.3204
   42TAL   C20920822   2.705   3.792  -2.285  0.5434 -0.0173 -0.1682
   42TAL   C21020823   2.800   3.691  -2.361 -0.2033  0.2919 -0.3165
   43HTM   C21120824   2.370   3.645  -1.916  0.5686 -0.2250 -0.1026
   43HTM   C21220825   2.495   3.592  -1.900  0.5485 -0.5153 -0.8705
   43HTM   C21320826   2.517   3.473  -1.978 -0.1749 -0.5175 -1.0846
   43HTM   C21420827   2.410   3.435  -2.053 -0.7062 -0.2287 -0.4797
   43HTM    S2220828   2.271   3.548  -2.031 -0.3314  0.0706  0.4142
   44TAL   C21520829   2.662   3.412  -1.965  0.7042 -0.0032  0.3422
   44TAL   C21620830   2.771   3.502  -2.017  0.3351 -0.3083 -0.0292
   44TAL   C21720831   2.903   3.424  -2.027  0.9059  0.0140  0.0721
   44TAL   C21820832   3.026   3.493  -2.082 -0.7233 -0.4065 -0.1549
   44TAL   C21920833   3.152   3.405  -2.065  0.1095 -0.7547 -0.5247
   44TAL   C22020834   3.268   3.463  -2.136 -0.0166  0.1260 -0.7652
   45HTM   C22120835   2.387   3.316  -2.135  0.1421 -0.1625  0.3262
   45HTM   C22220836   2.279   3.285  -2.213  0.2236 -0.3527  0.2882
   45HTM   C22320837   2.298   3.168  -2.295  0.5305 -0.2122  0.1554
   45HTM   C22420838   2.420   3.109  -2.279  0.6829  0.0851  0.0922
   45HTM    S2320839   2.521   3.198  -2.159  0.4491  0.2117  0.1961
   46TAL   C22520840   2.186   3.121  -2.385  0.1264  0.1260  0.1805
   46TAL   C22620841   2.138   3.230  -2.483 -0.2058  0.0716  0.4447
   46TAL   C22720842   2.027   3.174  -2.576 -0.2284 -0.3062  0.4798
   46TAL   C22820843   1.957   3.269  -2.668 -0.6597  0.0232  0.1013
   46TAL   C22920844   1.825   3.223  -2.733 -0.4660  0.3789  0.3018
   46TAL   C23020845   1.818   3.092  -2.808 -0.2775 -0.5464  0.7874
   47HTM   C23120846   2.479   2.990  -2.333 -0.0095  0.1714 -0.1148
   47HTM   C23220847   2.414   2.891  -2.399 -0.0181  0.2707 -0.2553
   47HTM   C23320848   2.502   2.794  -2.460 -0.0311  0.2170 -0.1898
   47HTM   C23420849   2.634   2.820  -2.440 -0.0323  0.0767  0.0009
   47HTM    S2420850   2.658   2.970  -2.342 -0.0168  0.0010  0.1132
   48TAL   C23520851   2.442   2.673  -2.525  0.2908 -0.8038 -0.2027
   48TAL   C23620852   2.508   2.559  -2.608 -0.6200 -0.8812 -0.1425
   48TAL   C23720853   2.619   2.614  -2.698 -0.4817  0.0026 -0.6093
   48TAL   C23820854   2.697   2.512  -2.778 -0.2212  0.1266  0.0417
   48TAL   C23920855   2.801   2.575  -2.875 -0.0477  0.1687  0.3210
   48TAL   C24020856   2.912   2.482  -2.924  0.1120  0.5880  0.1572
    1HTM     C120857   0.527   2.130   1.832  0.4785  0.0543 -0.0937
    1HTM     C220858   0.405   2.126   1.891  0.4444 -0.1900 -0.1796
    1HTM     C320859   0.330   2.249   1.879  0.1069 -0.4172 -0.4443
    1HTM     C420860   0.397   2.347   1.811 -0.1164 -0.3459 -0.5602
    1HTM     S120861   0.559   2.291   1.756  0.0839  0.0164 -0.3422
    2TAL     C520862   0.200   2.270   1.945  0.2063 -0.1244 -0.4472
    2TAL     C620863   0.100   2.160   1.965  0.1939  0.1496 -0.0960
    2TAL     C720864  -0.045   2.201   1.977  0.8151 -0.1263 -0.1210
    2TAL     C820865  -0.113   2.255   1.849 -0.4214  0.7935 -0.4946
    2TAL     C920866  -0.265   2.282   1.852 -0.0638  0.3291  0.1784
    2TAL    C1020867  -0.315   2.345   1.721 -0.1346  0.5000 -0.1261
    3HTM    C1120868   0.360   2.477   1.760 -0.0536 -0.0279 -0.2480
    3HTM    C1220869   0.421   2.552   1.664  0.1709  0.1050  0.0004
    3HTM    C1320870   0.352   2.674   1.633  0.3213  0.2202  0.1094
    3HTM    C1420871   0.237   2.692   1.704  0.2117  0.1751 -0.0558
    3HTM     S220872   0.207   2.555   1.818 -0.0926 -0.0178 -0.3644
    4TAL    C1520873   0.409   2.777   1.531  0.5220  0.3073 -0.0072
    4TAL    C1620874   0.552   2.817   1.549  0.6199  0.1718  0.5167
    4TAL    C1720875   0.555   2.963   1.508 -0.7401 -0.6628  0.2439
    4TAL    C1820876   0.494   3.068   1.604  0.8451  0.2969  0.1145
    4TAL    C1920877   0.537   3.108   1.746  0.1314 -0.0268  0.3065
    4TAL    C2020878   0.505   3.006   1.851 -0.1842  0.0733  0.6900
    5HTM    C2120879   0.142   2.799   1.705 -0.0271 -0.4510  0.2484
    5HTM    C2220880   0.164   2.933   1.694  0.3417 -0.4975  0.4035
    5HTM    C2320881   0.043   3.012   1.698  0.5427 -0.1841  0.3049
    5HTM    C2420882  -0.070   2.938   1.712  0.3270  0.1014  0.0745
    5HTM     S320883  -0.034   2.762   1.721 -0.1501 -0.0042 -0.0366
    6TAL    C2520884   0.037   3.167   1.701  0.5253 -0.5399 -0.2067
    6TAL    C2620885   0.167   3.231   1.727 -0.1614 -0.7221  0.2110
    6TAL    C2720886   0.159   3.378   1.703  0.8915 -0.1962  0.5371
    6TAL    C2820887   0.288   3.459   1.700  0.4598  0.4699 -0.0915
    6TAL    C2920888   0.256   3.610   1.688  0.2866 -0.3930 -0.2551
    6TAL    C3020889   0.377   3.695   1.675 -0.2483 -0.7076 -0.6018
    7HTM    C3120890  -0.211   2.970   1.702 -0.0653  0.2158 -0.1186
    7HTM    C3220891  -0.266   3.055   1.611 -0.3595  0.3740  0.2011
    7HTM    C3320892  -0.408   3.041   1.596 -0.3700  0.2191  0.4438
    7HTM    C3420893  -0.463   2.945   1.676 -0.0842 -0.0571  0.3092
    7HTM     S420894  -0.337   2.864   1.778  0.2224 -0.1437 -0.1381
    8TAL    C3520895  -0.492   3.124   1.503  0.4061  0.4715  0.1417
    8TAL    C3620896  -0.445   3.206   1.388 -0.5277 -0.5688 -0.3366
    8TAL    C3720897  -0.324   3.303   1.396  0.6484 -0.2411  0.2644
    8TAL    C3820898  -0.318   3.395   1.517 -0.0273 -0.3271 -0.4107
    8TAL    C3920899  -0.182   3.454   1.541  0.2227 -0.0594  0.1775
    8TAL    C4020900  -0.177   3.547   1.661 -0.1687 -0.4339  0.0661
    9HTM    C4120901  -0.596   2.889   1.686  0.1934 -0.4939  0.2487
    9HTM    C4220902  -0.714   2.951   1.713  0.2322 -0.4764  0.3732
    9HTM    C4320903  -0.823   2.861   1.741  0.2069 -0.4641  0.3172
    9HTM    C4420904  -0.788   2.729   1.735  0.1494 -0.4724  0.1499
    9HTM     S520905  -0.613   2.709   1.694  0.1229 -0.4966  0.0493
   10TAL    C4520906  -0.969   2.915   1.779 -0.1144 -0.4552  0.3486
   10TAL    C4620907  -0.996   3.064   1.771 -0.2532 -0.4582  0.5470
   10TAL    C4720908  -1.143   3.103   1.782 -0.5423 -0.8176 -0.0637
   10TAL    C4820909  -1.140   3.258   1.762 -0.6680  0.1825  0.7318
   10TAL    C4920910  -1.097   3.316   1.625  0.5479  0.1093 -0.3113
   10TAL    C5020911  -1.090   3.467   1.638  0.8350  0.8210 -0.2064
   11HTM    C5120912  -0.871   2.609   1.743 -0.0318  0.7645  0.3148
   11HTM    C5220913  -0.835   2.483   1.708  0.3605  0.7670  0.7054
   11HTM    C5320914  -0.945   2.391   1.699  0.5956  0.4948  0.5857
   11HTM    C5420915  -1.066   2.447   1.727  0.3820  0.2849  0.1038
   11HTM     S620916  -1.050   2.622   1.768 -0.1365  0.4155 -0.2388
   12TAL    C5520917  -0.918   2.244   1.661 -0.1427 -0.3488 -0.1769
   12TAL    C5620918  -0.781   2.180   1.642 -0.9428  0.3609 -0.1969
   12TAL    C5720919  -0.784   2.035   1.623  0.0335 -0.3469  0.1971
   12TAL    C5820920  -0.650   1.956   1.623 -0.3502  0.8975 -0.6844
   12TAL    C5920921  -0.548   1.964   1.730 -0.5786  0.1318 -0.2508
   12TAL    C6020922  -0.413   1.940   1.663 -0.4638  0.4197  0.3026
   13HTM    C6120923  -1.207   2.402   1.729  0.2072 -0.2316  0.0512
   13HTM    C6220924  -1.313   2.487   1.739  0.2663 -0.2050  0.4685
   13HTM    C6320925  -1.441   2.422   1.734  0.2244 -0.1253  0.4964
   13HTM    C6420926  -1.433   2.286   1.719  0.1330 -0.0908  0.1006
   13HTM     S720927  -1.262   2.231   1.712  0.0925 -0.1569 -0.3418
   14TAL    C6520928  -1.581   2.491   1.751  0.4165  0.0089 -0.0161
   14TAL    C6620929  -1.581   2.639   1.743  0.0043 -0.0104  0.1866
   14TAL    C6720930  -1.712   2.711   1.782  0.0673  0.0554  0.8170
   14TAL    C6820931  -1.705   2.867   1.769  0.1148  0.0695 -0.7960
   14TAL    C6920932  -1.844   2.909   1.801  0.7860 -0.8297  0.1983
   14TAL    C7020933  -1.865   3.058   1.806  0.0007 -0.4133 -0.6398
   15HTM    C7120934  -1.529   2.183   1.706  0.1070 -0.0615  0.1091
   15HTM    C7220935  -1.525   2.081   1.616  0.0656 -0.2574  0.3281
   15HTM    C7320936  -1.646   2.004   1.610  0.0463 -0.2440  0.5193
   15HTM    C7420937  -1.743   2.047   1.695  0.0734 -0.0379  0.4462
   15HTM     S820938  -1.689   2.190   1.791  0.1251  0.1566  0.1277
   16TAL    C7520939  -1.666   1.882   1.526  0.3291  0.4213  0.1883
   16TAL    C7620940  -1.648   1.882   1.372  0.1084 -0.2343  0.4961
   16TAL    C7720941  -1.702   1.759   1.308 -0.0567 -0.1863  1.0867
   16TAL    C7820942  -1.692   1.775   1.153  0.1151 -0.0445  0.2132
   16TAL    C7920943  -1.681   1.632   1.101  0.5283  0.2556  0.0018
   16TAL    C8020944  -1.676   1.634   0.950  0.3133 -0.2360  0.5030
   17HTM    C8120945  -1.889   2.015   1.700  0.3121 -0.0255  0.0616
   17HTM    C8220946  -1.985   2.090   1.761  0.3576  0.0688  0.0182
   17HTM    C8320947  -2.114   2.027   1.764  0.2363  0.2984 -0.2560
   17HTM    C8420948  -2.117   1.903   1.706  0.0980  0.3789 -0.4218
   17HTM     S920949  -1.954   1.858   1.641  0.1104  0.1695 -0.2431
   18TAL    C8520950  -2.230   2.107   1.823  0.0594 -0.9466 -0.1547
   18TAL    C8620951  -2.204   2.246   1.871  0.2645 -0.4444 -0.0706
   18TAL    C8720952  -2.298   2.306   1.975 -0.3831 -0.5109 -0.1031
   18TAL    C8820953  -2.437   2.326   1.918 -0.1620  1.2001 -0.0641
   18TAL    C8920954  -2.540   2.390   2.008 -0.2142  0.9192  0.1817
   18TAL    C9020955  -2.675   2.421   1.947 -0.2507  0.0376 -0.2181
   19HTM    C9120956  -2.226   1.807   1.702 -0.3208  0.2825  0.0512
   19HTM    C9220957  -2.239   1.685   1.762 -0.3712  0.3595  0.1986
   19HTM    C9320958  -2.366   1.622   1.738 -0.2728  0.2368  0.0019
   19HTM    C9420959  -2.450   1.695   1.660 -0.1476  0.0664 -0.2956
   19HTM    S1020960  -2.375   1.852   1.610 -0.1448  0.0475 -0.3507
   20TAL    C9520961  -2.404   1.482   1.801 -0.3516 -0.0100  1.0672
   20TAL    C9620962  -2.318   1.430   1.914 -0.0214  0.3650 -0.1375
   20TAL    C9720963  -2.349   1.280   1.929 -0.7745 -0.3732  0.1385
   20TAL    C9820964  -2.254   1.207   2.023  0.3224  0.6304  0.0032
   20TAL    C9920965  -2.258   1.223   2.176 -0.4363  0.1782  0.1847
   20TAL   C10020966  -2.152   1.130   2.236 -0.1888 -0.2918  0.6198
   21HTM   C10120967  -2.588   1.683   1.603 -0.1937  0.3027 -0.1523
   21HTM   C10220968  -2.648   1.773   1.520 -0.5155  0.4299  0.2149
   21HTM   C10320969  -2.784   1.739   1.487 -0.5651  0.3536  0.4936
   21HTM   C10420970  -2.827   1.624   1.545 -0.2815  0.1682  0.3388
   21HTM    S1120971  -2.699   1.548   1.646  0.0736  0.0748 -0.1749
   22TAL   C10520972  -2.866   1.816   1.384 -0.0051  1.3735  0.3379
   22TAL   C10620973  -2.802   1.926   1.301 -0.0904  0.1005  0.1305
   22TAL   C10720974  -2.692   1.885   1.203 -0.8314  0.1758  0.0618
   22TAL   C10820975  -2.711   1.802   1.080  0.6521 -0.6955 -0.6576
   22TAL   C10920976  -2.593   1.784   0.992 -0.5246 -0.6368  0.9710
   22TAL   C11020977  -2.622   1.704   0.864  0.6800 -0.3313 -0.1367
   23HTM   C11120978  -2.954   1.552   1.542 -0.3047  0.3690 -0.2107
   23HTM   C11220979  -3.030   1.518   1.434 -0.7622  1.0418 -0.1050
   23HTM   C11320980  -3.159   1.464   1.469 -0.8001  1.2606  0.0967
   23HTM   C11420981  -3.181   1.457   1.603 -0.3708  0.7550  0.1447
   23HTM    S1220982  -3.040   1.518   1.697  0.1177 -0.0432 -0.0626
   24TAL   C11520983  -3.274   1.457   1.369 -0.3522 -0.4117  0.0595
   24TAL   C11620984  -3.320   1.596   1.321  0.4159  0.2581 -1.1682
   24TAL   C11720985  -3.445   1.592   1.223 -0.3318 -0.3553  0.0267
   24TAL   C11820986  -3.575   1.530   1.262 -0.1763  0.1535 -0.3532
   24TAL   C11920987  -3.659   1.617   1.358  0.5908 -0.2226  0.7105
   24TAL   C12020988  -3.626   1.656   1.495 -0.3227 -0.2678 -0.1754
   25HTM   C12120989  -3.295   1.390   1.676  0.1390 -0.4975 -0.4489
   25HTM   C12220990  -3.286   1.339   1.802  0.3388 -0.4284 -0.4351
   25HTM   C12320991  -3.404   1.267   1.844  0.3471 -0.2760 -0.1529
   25HTM   C12420992  -3.503   1.264   1.750  0.1534 -0.2290  0.0484
   25HTM    S1320993  -3.455   1.351   1.600 -0.0560 -0.3746 -0.1040
   26TAL   C12520994  -3.434   1.205   1.985 -0.5396 -0.5312  0.4374
   26TAL   C12620995  -3.323   1.205   2.083 -0.1944 -0.1315 -0.7993
   26TAL   C12720996  -3.226   1.087   2.063  0.1583 -0.1853  0.2866
   26TAL   C12820997  -3.130   1.069   2.179  0.8475  0.5357  0.4454
   26TAL   C12920998  -3.058   0.939   2.196  0.1144  1.0822 -0.0941
   26TAL   C13020999  -2.937   0.928   2.293  0.4371  0.0761 -0.2064
   27HTM   C13121000  -3.641   1.207   1.752 -0.0002  0.6200 -0.4359
   27HTM   C13221001  -3.673   1.075   1.749  0.3223  0.5345 -0.2171
   27HTM   C13321002  -3.815   1.050   1.739  0.3760  0.1729 -0.1026
   27HTM   C13421003  -3.890   1.164   1.735  0.0947 -0.0172 -0.2339
   27HTM    S1421004  -3.787   1.312   1.742 -0.2629  0.2477 -0.5147
   28TAL   C13521005  -3.858   0.902   1.735 -0.0681  0.6747 -0.2892
   28TAL   C13621006  -3.761   0.785   1.705 -0.1005 -0.3434 -0.4626
   28TAL   C13721007  -3.682   0.774   1.564  0.1332 -0.0587  0.2533
   28TAL   C13821008  -3.597   0.652   1.542  0.1582 -0.0872 -0.3205
   28TAL   C13921009  -3.652   0.515   1.542  0.0082 -0.0457 -0.0344
   28TAL   C14021010  -3.746   0.476   1.430  0.4561  0.4862  0.1653
   29HTM   C14121011  -4.035   1.181   1.713 -0.2410 -0.0845 -0.4396
   29HTM   C14221012  -4.102   1.298   1.691 -0.3769 -0.2134 -0.7173
   29HTM   C14321013  -4.245   1.282   1.685 -0.3631 -0.3830 -0.6085
   29HTM   C14421014  -4.287   1.153   1.703 -0.2169 -0.3834 -0.2480
   29HTM    S1521015  -4.148   1.041   1.728 -0.0840 -0.1680 -0.0160
   30TAL   C14521016  -4.325   1.406   1.644 -0.3998 -0.0996 -0.1687
   30TAL   C14621017  -4.428   1.463   1.739 -0.4036  0.2726 -0.0337
   30TAL   C14721018  -4.556   1.506   1.674  0.8463 -0.0909 -0.0412
   30TAL   C14821019  -4.662   1.522   1.781 -0.0410 -0.1382 -0.0231
   30TAL   C14921020  -4.793   1.576   1.726  0.0504  0.1347  0.3443
   30TAL   C15021021  -4.919   1.582   1.812 -0.1010  0.0516 -0.2427
   31HTM   C15121022  -4.419   1.090   1.704  0.2474 -0.1583  0.2075
   31HTM   C15221023  -4.523   1.134   1.628  0.2663 -0.0247  0.2583
   31HTM   C15321024  -4.637   1.045   1.629  0.2203  0.0333  0.1702
   31HTM   C15421025  -4.618   0.933   1.705  0.1659 -0.0560  0.0523
   31HTM    S1621026  -4.455   0.931   1.782  0.1690 -0.2216  0.0432
   32TAL   C15521027  -4.757   1.093   1.564  0.2793 -0.4877 -0.3952
   32TAL   C15621028  -4.842   1.199   1.626  0.2819  0.8486  0.0297
   32TAL   C15721029  -4.981   1.174   1.574  0.0074 -0.6452 -0.3027
   32TAL   C15821030  -5.059   1.302   1.609 -0.1065  0.7500  0.2023
   32TAL   C15921031  -5.208   1.269   1.596  0.1394  0.3809 -0.1669
   32TAL   C16021032  -5.285   1.384   1.645 -0.1404 -0.4985 -0.1618
   33HTM   C16121033  -4.700   0.815   1.728 -0.1435  0.0508  0.5191
   33HTM   C16221034  -4.831   0.792   1.694 -0.0758 -0.0208  0.3039
   33HTM   C16321035  -4.881   0.665   1.741 -0.0217 -0.1401  0.0407
   33HTM   C16421036  -4.789   0.592   1.810 -0.0485 -0.1595  0.0553
   33HTM    S1721037  -4.631   0.677   1.821 -0.1443 -0.0275  0.4051
   34TAL   C16521038  -5.032   0.640   1.731 -0.0511  0.3368 -0.4454
   34TAL   C16621039  -5.080   0.510   1.661  0.3755  0.4740 -0.6181
   34TAL   C16721040  -5.025   0.479   1.521 -0.0045  0.2390 -0.9971
   34TAL   C16821041  -5.124   0.388   1.448 -0.0746  0.6464  0.0602
   34TAL   C16921042  -5.060   0.335   1.320  0.0772  0.3506  0.1200
   34TAL   C17021043  -5.172   0.278   1.229 -0.1823 -0.0863 -0.3510
   35HTM   C17121044  -4.793   0.468   1.887  0.4486  0.2051 -0.0013
   35HTM   C17221045  -4.725   0.450   2.004  0.2606  0.1811  0.1037
   35HTM   C17321046  -4.742   0.319   2.061  0.0312  0.2249  0.1383
   35HTM   C17421047  -4.822   0.237   1.988  0.0440  0.2823  0.0597
   35HTM    S1821048  -4.883   0.319   1.839  0.3492  0.2854 -0.0650
   36TAL   C17521049  -4.689   0.295   2.202  0.1600 -0.1451 -0.4761
   36TAL   C17621050  -4.533   0.302   2.235  0.6254  0.2711 -0.5380
   36TAL   C17721051  -4.445   0.196   2.169  0.0289  0.7890 -0.3324
   36TAL   C17821052  -4.298   0.234   2.164 -0.2115 -0.5728  0.1264
   36TAL   C17921053  -4.216   0.107   2.113  0.1051  0.4435  0.0033
   36TAL   C18021054  -4.073   0.139   2.105 -0.6157  0.2073 -0.1287
   37HTM   C18121055  -4.861   0.098   2.011  0.4850  0.2871 -0.0823
   37HTM   C18221056  -4.916   0.016   1.916  0.7541  0.3310 -0.2751
   37HTM   C18321057  -4.923  -0.122   1.955  0.4303  0.3490 -0.2643
   37HTM   C18421058  -4.873  -0.147   2.080 -0.0865  0.3185 -0.0633
   37HTM    S1921059  -4.814   0.005   2.158 -0.2050  0.2648  0.1293
   38TAL   C18521060  -5.007  -0.222   1.881  0.5134 -0.3409 -0.4092
   38TAL   C18621061  -5.149  -0.174   1.843  0.8552 -0.1478 -0.2864
   38TAL   C18721062  -5.250  -0.282   1.813  0.4725  0.4930 -0.2012
   38TAL   C18821063  -5.377  -0.235   1.745  0.0451  0.1517 -0.1665
   38TAL   C18921064  -5.484  -0.335   1.778  0.9252  0.2360 -0.2452
   38TAL   C19021065  -5.605  -0.329   1.685  0.2593  0.0202 -0.6790
   39HTM   C19121066  -4.847  -0.274   2.137  0.6751  0.1328  0.1439
   39HTM   C19221067  -4.782  -0.384   2.088  0.9367  0.1898  0.3595
   39HTM   C19321068  -4.752  -0.483   2.188  0.7172  0.2303  0.4661
   39HTM   C19421069  -4.794  -0.449   2.313  0.2891  0.2047  0.3320
   39HTM    S2021070  -4.875  -0.288   2.315  0.1272  0.1263  0.0583
   40TAL   C19521071  -4.676  -0.609   2.147  0.0670 -0.3757  0.3409
   40TAL   C19621072  -4.527  -0.608   2.120  0.1773  0.2369  0.2804
   40TAL   C19721073  -4.463  -0.746   2.105 -0.0486 -1.2425 -0.2922
   40TAL   C19821074  -4.401  -0.812   2.225  0.5461 -0.0168 -0.2156
   40TAL   C19921075  -4.296  -0.752   2.312  0.2079  0.1518 -1.0035
   40TAL   C20021076  -4.250  -0.833   2.433 -0.0470  0.2140  0.7940
   41HTM   C20121077  -4.764  -0.509   2.439 -0.0802  0.3773  0.1365
   41HTM   C20221078  -4.679  -0.467   2.538 -0.5081  0.5412  0.4375
   41HTM   C20321079  -4.665  -0.561   2.646 -0.5996  0.5083  0.4209
   41HTM   C20421080  -4.738  -0.674   2.630 -0.2412  0.3189  0.1072
   41HTM    S2121081  -4.832  -0.672   2.476  0.2432  0.1658 -0.1936
   42TAL   C20521082  -4.570  -0.547   2.770  0.3245  0.3135  0.2501
   42TAL   C20621083  -4.503  -0.415   2.799  0.5235  0.1040 -0.4324
   42TAL   C20721084  -4.378  -0.382   2.725  0.1935  0.3920 -0.0538
   42TAL   C20821085  -4.308  -0.262   2.784 -0.5660 -0.2062 -1.0454
   42TAL   C20921086  -4.191  -0.213   2.712  0.1006  0.5058  0.1207
   42TAL   C21021087  -4.133  -0.090   2.780 -0.2841 -0.2865 -0.7362
   43HTM   C21121088  -4.753  -0.801   2.706  0.0275 -0.0525 -0.3401
   43HTM   C21221089  -4.794  -0.829   2.833 -0.0756 -0.1769 -0.4009
   43HTM   C21321090  -4.827  -0.967   2.854 -0.1166 -0.1936 -0.5708
   43HTM   C21421091  -4.811  -1.045   2.743 -0.0447 -0.0812 -0.6393
   43HTM    S2221092  -4.753  -0.948   2.602  0.0807  0.0550 -0.4937
   44TAL   C21521093  -4.871  -1.029   2.989  0.3693 -0.1626 -0.0248
   44TAL   C21621094  -4.951  -0.946   3.087 -0.8396  0.2106  0.1672
   44TAL   C21721095  -5.084  -0.907   3.028  0.2964 -0.0361 -0.6650
   44TAL   C21821096  -5.146  -0.782   3.085 -0.0346  0.2136 -0.0136
   44TAL   C21921097  -5.240  -0.718   2.987 -0.0249  0.3581 -0.4189
   44TAL   C22021098  -5.329  -0.603   3.043 -0.6595 -0.2570 -0.0784
   45HTM   C22121099  -4.833  -1.187   2.713  0.4830  0.0478  0.0420
   45HTM   C22221100  -4.960  -1.236   2.723  0.4327  0.2532  0.4429
   45HTM   C22321101  -4.982  -1.355   2.646  0.0160  0.2427  0.5751
   45HTM   C22421102  -4.872  -1.397   2.577 -0.2510  0.0292  0.2750
   45HTM    S2321103  -4.731  -1.288   2.604  0.0042 -0.1768 -0.2014
   46TAL   C22521104  -5.122  -1.423   2.644  0.1412  0.4514 -0.0431
   46TAL   C22621105  -5.225  -1.385   2.748 -0.1019 -0.1533 -0.6712
   46TAL   C22721106  -5.276  -1.246   2.736 -0.1942 -0.0348 -0.3993
   46TAL   C22821107  -5.372  -1.218   2.857 -0.2624 -0.0445 -0.1024
   46TAL   C22921108  -5.399  -1.065   2.874 -0.0814  0.3643  0.1770
   46TAL   C23021109  -5.472  -1.024   3.000 -0.4552 -0.1990 -0.5905
   47HTM   C23121110  -4.854  -1.516   2.491 -0.2409  0.2692 -0.0927
   47HTM   C23221111  -4.933  -1.593   2.411 -0.2835 -0.0026  0.2117
   47HTM   C23321112  -4.861  -1.695   2.339 -0.2906 -0.1073  0.3506
   47HTM   C23421113  -4.727  -1.695   2.363 -0.2531  0.0852  0.1523
   47HTM    S2421114  -4.681  -1.566   2.480 -0.2063  0.4157 -0.2284
   48TAL   C23521115  -4.937  -1.797   2.263  0.3552  0.1633  0.2360
   48TAL   C23621116  -4.857  -1.884   2.165 -0.3693  0.2786 -0.2035
   48TAL   C23721117  -4.802  -2.032   2.210  1.0377 -0.3263  0.3288
   48TAL   C23821118  -4.895  -2.130   2.277 -0.4150 -0.2001 -0.4430
   48TAL   C23921119  -4.819  -2.265   2.286  0.8133  0.0110 -0.1691
   48TAL   C24021120  -4.923  -2.368   2.332 -0.2825  0.0251 -0.4378
    1HTM     C121121   1.869   0.452   6.600  0.2951  0.5807  0.3571
    1HTM     C221122   1.767   0.406   6.523  0.1359  0.7453  0.4668
    1HTM     C321123   1.811   0.329   6.409 -0.1141  0.6022  0.4659
    1HTM     C421124   1.946   0.316   6.400 -0.1455  0.3286  0.3558
    1HTM     S121125   2.029   0.402   6.536  0.1406  0.2296  0.2432
    2TAL     C521126   1.706   0.276   6.317 -0.0069  0.1952  0.3165
    2TAL     C621127   1.677   0.367   6.195 -0.6117  0.7268 -0.3708
    2TAL     C721128   1.580   0.307   6.090 -0.2452 -0.1559 -0.6311
    2TAL     C821129   1.615   0.167   6.048  0.0023 -0.2660 -0.2382
    2TAL     C921130   1.525   0.114   5.944  0.5940 -0.0028 -0.5882
    2TAL    C1021131   1.552  -0.020   5.882  0.1829  0.5673 -0.0728
    3HTM    C1121132   2.028   0.250   6.300 -0.2253  0.0692 -0.2223
    3HTM    C1221133   1.988   0.146   6.220 -0.1943  0.4068 -0.6828
    3HTM    C1321134   2.094   0.092   6.139 -0.0585  0.4609 -0.5419
    3HTM    C1421135   2.214   0.154   6.157  0.0141  0.1645  0.0263
    3HTM     S221136   2.203   0.287   6.278 -0.0842 -0.2087  0.4300
    4TAL    C1521137   2.064  -0.031   6.048  0.0532 -0.6640 -0.1827
    4TAL    C1621138   2.039  -0.000   5.902 -0.4177  0.3098  0.7301
    4TAL    C1721139   1.925   0.099   5.867 -0.3073  0.3413 -0.0472
    4TAL    C1821140   1.908   0.114   5.717 -0.1411 -0.2027  0.2373
    4TAL    C1921141   1.782   0.187   5.685 -0.5322  0.3537 -0.2429
    4TAL    C2021142   1.756   0.212   5.535 -0.1919 -0.5154  0.0929
    5HTM    C2121143   2.343   0.136   6.094  0.1378  0.0345 -0.0109
    5HTM    C2221144   2.382   0.039   6.006  0.1496  0.0029  0.0291
    5HTM    C2321145   2.519   0.051   5.964  0.1544 -0.0106  0.0410
    5HTM    C2421146   2.585   0.157   6.019  0.1461  0.0107  0.0098
    5HTM     S321147   2.478   0.251   6.130  0.1317  0.0498 -0.0375
    6TAL    C2521148   2.587  -0.049   5.866 -0.0391  0.7588  0.1168
    6TAL    C2621149   2.518  -0.186   5.825  0.9808 -0.1702 -0.2433
    6TAL    C2721150   2.505  -0.276   5.947  0.7658 -0.1879  0.0741
    6TAL    C2821151   2.509  -0.419   5.904 -0.9211  0.7401 -0.5387
    6TAL    C2921152   2.557  -0.512   6.023  0.1642 -0.1742 -0.0814
    6TAL    C3021153   2.549  -0.654   5.986 -0.0713 -0.0196 -0.2244
    7HTM    C3121154   2.713   0.213   5.999 -0.5699 -0.1354 -0.5098
    7HTM    C3221155   2.829   0.163   5.946 -0.5190  0.0312 -0.5555
    7HTM    C3321156   2.938   0.258   5.945 -0.5666  0.0884 -0.3076
    7HTM    C3421157   2.905   0.379   5.997 -0.6533 -0.0344 -0.0725
    7HTM     S421158   2.733   0.384   6.051 -0.6823 -0.2336 -0.1467
    8TAL    C3521159   3.073   0.218   5.895 -0.0304 -0.3532 -0.3794
    8TAL    C3621160   3.171   0.150   5.998  0.5709 -0.6330  0.4561
    8TAL    C3721161   3.297   0.086   5.935  0.7549  0.3598 -0.3481
    8TAL    C3821162   3.409   0.056   6.033  0.2816 -0.7336  0.0181
    8TAL    C3921163   3.381   0.015   6.175  0.2546  0.0668 -0.1075
    8TAL    C4021164   3.343  -0.131   6.189  0.3955 -0.3805 -0.1346
    9HTM    C4121165   2.974   0.505   6.021  0.4239 -0.5128  0.2767
    9HTM    C4221166   2.907   0.622   6.037 -0.0178 -0.7216 -0.0055
    9HTM    C4321167   2.991   0.739   6.027 -0.4634 -0.4245 -0.3512
    9HTM    C4421168   3.122   0.710   6.003 -0.3616  0.0108 -0.3324
    9HTM     S521169   3.150   0.532   5.992  0.3102  0.0799  0.1263
   10TAL    C4521170   2.921   0.877   6.040 -0.5297 -0.2991 -0.2175
   10TAL    C4621171   2.773   0.891   6.072  0.0439 -0.2407 -0.2635
   10TAL    C4721172   2.709   1.018   6.040 -0.0333  0.4895  0.1289
   10TAL    C4821173   2.559   1.005   6.074 -0.3895 -0.3605  0.1347
   10TAL    C4921174   2.465   1.132   6.054 -0.3456 -0.4852  0.2277
   10TAL    C5021175   2.322   1.096   6.074 -0.9521  0.0265 -0.5972
   11HTM    C5121176   3.242   0.790   5.992 -0.1917  0.1250 -0.1329
   11HTM    C5221177   3.369   0.742   5.977 -0.2078  0.0210  0.0591
   11HTM    C5321178   3.468   0.846   5.962 -0.1321 -0.0658 -0.0401
   11HTM    C5421179   3.417   0.972   5.965 -0.0582 -0.0281 -0.3072
   11HTM     S621180   3.238   0.970   5.988 -0.0787  0.1213 -0.4558
   12TAL    C5521181   3.618   0.800   5.962 -0.1695  0.1947  0.5116
   12TAL    C5621182   3.662   0.664   6.021 -0.6197  0.5267 -0.7322
   12TAL    C5721183   3.794   0.611   5.965 -0.1694  0.0581  0.1429
   12TAL    C5821184   3.826   0.462   5.986  0.7695  0.3750  0.4470
   12TAL    C5921185   3.720   0.357   5.934 -0.5935  0.2758 -0.6036
   12TAL    C6021186   3.756   0.214   5.965  0.1426 -0.1114 -0.1504
   13HTM    C6121187   3.474   1.106   5.941 -0.1397 -0.0340 -0.4602
   13HTM    C6221188   3.402   1.210   5.891  0.1280 -0.0033 -0.7849
   13HTM    C6321189   3.483   1.319   5.843  0.3908 -0.0355 -0.4213
   13HTM    C6421190   3.617   1.298   5.856  0.3236 -0.0908  0.1809
   13HTM     S721191   3.652   1.138   5.932 -0.0800 -0.1066  0.3366
   14TAL    C6521192   3.418   1.441   5.773  0.6748 -0.2389 -0.4601
   14TAL    C6621193   3.290   1.409   5.707  0.5398 -0.2853 -0.3752
   14TAL    C6721194   3.222   1.528   5.641 -0.3069 -0.0226  0.1052
   14TAL    C6821195   3.091   1.495   5.595 -0.1969  0.0847 -0.0472
   14TAL    C6921196   3.024   1.634   5.581  0.5191  0.5889 -0.1536
   14TAL    C7021197   2.871   1.646   5.552  0.1613  0.4235  0.2277
   15HTM    C7121198   3.731   1.383   5.818 -0.1327  0.1210 -0.0776
   15HTM    C7221199   3.731   1.519   5.818  0.3065  0.1246  0.2878
   15HTM    C7321200   3.852   1.577   5.765  0.5530 -0.1222  0.5820
   15HTM    C7421201   3.944   1.485   5.726  0.3023 -0.3139  0.4405
   15HTM     S821202   3.885   1.316   5.752 -0.2698 -0.1966 -0.0789
   16TAL    C7521203   3.848   1.727   5.737  0.0037  0.1612  0.0471
   16TAL    C7621204   3.855   1.774   5.593 -0.8467 -0.1029  0.0705
   16TAL    C7721205   3.770   1.902   5.561 -0.4949 -0.2224 -0.3990
   16TAL    C7821206   3.772   1.926   5.411 -0.3277 -0.2340  0.0317
   16TAL    C7921207   3.667   2.013   5.345 -0.9828 -0.3927  0.6908
   16TAL    C8021208   3.690   2.017   5.195 -0.3716 -0.1025 -0.8381
   17HTM    C8121209   4.082   1.498   5.696  0.0935 -0.1842 -0.2645
   17HTM    C8221210   4.169   1.398   5.660  0.2506  0.0231 -0.4625
   17HTM    C8321211   4.303   1.445   5.635  0.2224  0.2596 -0.1864
   17HTM    C8421212   4.318   1.579   5.651  0.0444  0.2327  0.2221
   17HTM     S921213   4.164   1.658   5.700 -0.1035 -0.0960  0.2907
   18TAL    C8521214   4.407   1.347   5.603 -0.0307  0.1054  0.3148
   18TAL    C8621215   4.436   1.330   5.454  0.5676 -0.5640  0.1273
   18TAL    C8721216   4.554   1.238   5.422 -0.2106  0.6084 -0.8024
   18TAL    C8821217   4.540   1.096   5.449  0.3358 -0.3570 -0.1433
   18TAL    C8921218   4.656   1.013   5.408  0.1517  0.1676 -0.3849
   18TAL    C9021219   4.659   0.873   5.459 -0.2727  0.1483 -0.7939
   19HTM    C9121220   4.438   1.668   5.647 -0.1521  0.0726 -0.5050
   19HTM    C9221221   4.442   1.794   5.699 -0.3340  0.4371 -1.3618
   19HTM    C9321222   4.571   1.856   5.693 -0.3490  0.4576 -1.4825
   19HTM    C9421223   4.667   1.777   5.637 -0.1786  0.1088 -0.7176
   19HTM    S1021224   4.600   1.617   5.586  0.0158 -0.2758  0.2218
   20TAL    C9521225   4.597   1.995   5.747 -0.5558 -1.2216 -0.3185
   20TAL    C9621226   4.469   2.076   5.771  0.5336  0.6226 -0.6119
   20TAL    C9721227   4.488   2.229   5.766 -0.2710 -0.0662  0.1101
   20TAL    C9821228   4.354   2.305   5.796 -0.1429  0.0964  0.0107
   20TAL    C9921229   4.349   2.450   5.764 -0.8290 -0.7881 -0.2690
   20TAL   C10021230   4.293   2.539   5.878 -0.1522  0.3253 -0.1236
   21HTM   C10121231   4.804   1.801   5.602  0.2140 -0.0164 -0.0208
   21HTM   C10221232   4.889   1.695   5.587  0.2871  0.0979 -0.4299
   21HTM   C10321233   5.028   1.729   5.605  0.2894  0.1863 -0.6111
   21HTM   C10421234   5.049   1.861   5.633  0.2181  0.1395 -0.3405
   21HTM    S1121235   4.894   1.953   5.640  0.1418 -0.0213  0.1690
   22TAL   C10521236   5.142   1.631   5.573 -0.1122  0.4584 -0.6429
   22TAL   C10621237   5.180   1.627   5.424 -0.3322 -1.1014 -0.0497
   22TAL   C10721238   5.289   1.525   5.392 -0.3510 -0.1949 -0.8785
   22TAL   C10821239   5.429   1.570   5.422 -0.3404 -0.0359  0.6534
   22TAL   C10921240   5.511   1.442   5.404  0.2936 -0.1412  0.0433
   22TAL   C11021241   5.659   1.463   5.426  0.2486  0.5141 -0.0811
   23HTM   C11121242   5.165   1.923   5.693  0.1827  0.0967  0.2019
   23HTM   C11221243   5.250   1.867   5.784 -0.0927  0.1439  0.4900
   23HTM   C11321244   5.337   1.963   5.848 -0.2034  0.1599  0.6180
   23HTM   C11421245   5.319   2.091   5.805 -0.0122  0.1251  0.4278
   23HTM    S1221246   5.189   2.101   5.681  0.3250  0.0687  0.0695
   24TAL   C11521247   5.431   1.907   5.962  0.1731 -0.7103  0.0293
   24TAL   C11621248   5.441   1.768   6.013 -0.2002  0.3200 -0.2899
   24TAL   C11721249   5.310   1.691   6.042 -0.2025  0.2105 -0.4080
   24TAL   C11821250   5.339   1.550   6.096 -0.4524  0.6885 -0.4152
   24TAL   C11921251   5.219   1.470   6.143 -0.7034 -0.2341 -0.4403
   24TAL   C12021252   5.260   1.333   6.200  0.2070  0.1778 -0.3076
   25HTM   C12121253   5.384   2.210   5.844 -0.9345  0.1987  0.9320
   25HTM   C12221254   5.358   2.333   5.789 -0.8435  0.2124  0.9205
   25HTM   C12321255   5.447   2.436   5.835 -0.1907 -0.0314  0.2337
   25HTM   C12421256   5.540   2.393   5.925  0.2167 -0.2312 -0.2783
   25HTM    S1321257   5.523   2.217   5.959 -0.1964 -0.1258  0.0698
   26TAL   C12521258   5.430   2.581   5.778  0.9512  0.4758 -0.6140
   26TAL   C12621259   5.380   2.589   5.633  0.1700 -0.1583 -1.1272
   26TAL   C12721260   5.387   2.733   5.590 -0.0603  0.0045  0.0348
   26TAL   C12821261   5.326   2.729   5.454  0.2542 -0.8442  0.7015
   26TAL   C12921262   5.311   2.869   5.396 -0.4273 -0.3728 -0.1110
   26TAL   C13021263   5.224   2.867   5.273 -0.7727 -0.0682 -0.4647
   27HTM   C13121264   5.650   2.458   5.990  0.8413 -0.1520 -0.3608
   27HTM   C13221265   5.759   2.397   6.045  1.0755  0.1825 -0.4504
   27HTM   C13321266   5.857   2.489   6.097  0.6595  0.4842 -0.1886
   27HTM   C13421267   5.823   2.620   6.081  0.1083  0.3796  0.1006
   27HTM    S1421268   5.663   2.638   5.999  0.0713 -0.1117  0.0640
   28TAL   C13521269   5.992   2.442   6.151 -0.0568 -0.6574 -0.3959
   28TAL   C13621270   6.040   2.294   6.151 -0.9170  0.0482  0.1951
   28TAL   C13721271   6.176   2.266   6.218  0.4242 -0.5831 -0.3944
   28TAL   C13821272   6.209   2.120   6.260  0.2804  0.4718 -0.3567
   28TAL   C13921273   6.315   2.109   6.370 -0.3129  0.6853 -0.0615
   28TAL   C14021274   6.344   1.976   6.442 -0.8387  0.1875  0.4157
   29HTM   C14121275   5.892   2.741   6.120  0.0079  0.1975  0.0010
   29HTM   C14221276   5.838   2.865   6.097 -0.2449  0.1806  0.4830
   29HTM   C14321277   5.920   2.973   6.144 -0.4375  0.1680  0.8500
   29HTM   C14421278   6.036   2.933   6.203 -0.3319  0.1754  0.6476
   29HTM    S1521279   6.051   2.753   6.204  0.0224  0.1988 -0.0271
   30TAL   C14521280   5.877   3.120   6.127  0.4274 -0.5003  0.1466
   30TAL   C14621281   5.789   3.173   6.018  0.4433 -0.1312  0.0613
   30TAL   C14721282   5.776   3.322   6.028 -0.2378  0.1168  0.6557
   30TAL   C14821283   5.664   3.391   5.938 -0.3361  0.6045  0.2167
   30TAL   C14921284   5.641   3.535   5.991  0.1212  0.1800 -0.0065
   30TAL   C15021285   5.523   3.602   5.929 -0.4489 -0.0763 -0.0123
   31HTM   C15121286   6.149   3.005   6.258 -0.0257  0.2141  0.5342
   31HTM   C15221287   6.252   2.951   6.329 -0.0153  0.2278  0.5293
   31HTM   C15321288   6.357   3.045   6.360  0.0658  0.1957  0.3548
   31HTM   C15421289   6.333   3.171   6.313  0.1177  0.1578  0.2260
   31HTM    S1621290   6.175   3.180   6.225  0.0673  0.1595  0.3166
   32TAL   C15521291   6.465   3.014   6.462 -0.3216 -0.4789 -0.0561
   32TAL   C15621292   6.556   2.888   6.453  0.2141  0.1043 -0.3791
   32TAL   C15721293   6.648   2.888   6.333 -0.3630  0.1154  0.3170
   32TAL   C15821294   6.737   3.010   6.286  0.0574  0.2094  0.5766
   32TAL   C15921295   6.826   3.054   6.401 -0.5507 -0.4933  0.0103
   32TAL   C16021296   6.907   3.174   6.365  0.0907  0.3794 -0.3188
   33HTM   C16121297   6.411   3.298   6.309  0.0904 -0.0849  0.2696
   33HTM   C16221298   6.367   3.412   6.249 -0.2480  0.0049  0.6881
   33HTM   C16321299   6.467   3.515   6.240 -0.4139  0.1608  0.6292
   33HTM   C16421300   6.588   3.480   6.292 -0.2016  0.1896  0.1657
   33HTM    S1721301   6.584   3.312   6.359  0.2272  0.0209 -0.2355
   34TAL   C16521302   6.441   3.645   6.165 -0.3046  0.0931 -0.3312
   34TAL   C16621303   6.425   3.773   6.239  0.2767 -0.1201  0.0551
   34TAL   C16721304   6.450   3.893   6.149 -0.1774  0.3076 -0.0523
   34TAL   C16821305   6.595   3.928   6.133 -0.2597 -1.1035 -0.5813
   34TAL   C16921306   6.626   4.057   6.056  0.0800  0.3125 -0.4115
   34TAL   C17021307   6.767   4.116   6.076  0.0987 -0.2220 -0.2796
   35HTM   C17121308   6.714   3.552   6.302 -0.1714  0.3240 -0.1039
   35HTM   C17221309   6.790   3.590   6.409 -0.6285  0.6942  0.0918
   35HTM   C17321310   6.896   3.681   6.374 -0.5879  0.7106  0.2613
   35HTM   C17421311   6.902   3.712   6.242 -0.0991  0.3528  0.1946
   35HTM    S1821312   6.772   3.628   6.149  0.3506 -0.0353 -0.0894
   36TAL   C17521313   6.992   3.741   6.486  0.6577 -0.3957 -0.1823
   36TAL   C17621314   7.116   3.661   6.520 -0.1179 -0.0259  0.1955
   36TAL   C17721315   7.083   3.561   6.627 -0.1199  0.0349 -0.5866
   36TAL   C17821316   7.185   3.456   6.682  0.1362 -0.0439  0.1724
   36TAL   C17921317   7.325   3.507   6.724 -0.0709 -0.2798 -0.2231
   36TAL   C18021318   7.391   3.388   6.793 -0.1275 -0.0188  0.8456
   37HTM   C18121319   6.985   3.807   6.173 -0.1749  0.0403 -0.7699
   37HTM   C18221320   7.065   3.782   6.065 -0.4363  0.5137 -1.0777
   37HTM   C18321321   7.153   3.891   6.032 -0.4454  0.6204 -0.7517
   37HTM   C18421322   7.141   3.999   6.115 -0.1905  0.2284 -0.1956
   37HTM    S1921323   7.015   3.971   6.241  0.0828 -0.3099 -0.0386
   38TAL   C18521324   7.247   3.869   5.910  0.2204 -0.8004  0.2099
   38TAL   C18621325   7.182   3.886   5.773  0.5224  0.1238  0.4204
   38TAL   C18721326   7.088   4.008   5.743 -0.3405  0.5734  0.6526
   38TAL   C18821327   7.167   4.134   5.748  0.5021  0.1667 -0.0256
   38TAL   C18921328   7.083   4.249   5.705 -0.0898 -0.4813 -0.2560
   38TAL   C19021329   7.148   4.383   5.733 -0.3364 -0.8570  0.7381
   39HTM   C19121330   7.213   4.125   6.130  0.1258 -0.2890  0.3375
   39HTM   C19221331   7.340   4.148   6.087 -0.0472 -0.0870 -0.0732
   39HTM   C19321332   7.389   4.280   6.116 -0.3498  0.1705 -0.7067
   39HTM   C19421333   7.298   4.358   6.182 -0.4075  0.1645 -0.7792
   39HTM    S2021334   7.144   4.271   6.212 -0.0819 -0.1685 -0.0474
   40TAL   C19521335   7.531   4.322   6.075 -0.1329 -0.2075 -0.0261
   40TAL   C19621336   7.595   4.285   5.941  0.6260  0.3279  0.3192
   40TAL   C19721337   7.595   4.135   5.885 -0.8712 -0.2362 -0.1342
   40TAL   C19821338   7.680   4.037   5.960  0.4992  0.1007  0.1586
   40TAL   C19921339   7.640   3.892   5.934 -0.3884 -0.0912  0.8555
   40TAL   C20021340   7.724   3.789   6.003 -0.2415 -0.8090 -0.6184
   41HTM   C20121341   7.307   4.492   6.228 -0.0717  0.2548  0.3211
   41HTM   C20221342   7.204   4.581   6.228  0.1838  0.5503  0.3531
   41HTM   C20321343   7.245   4.717   6.256  0.5960  0.4523  0.2327
   41HTM   C20421344   7.379   4.730   6.277  0.6548  0.0818  0.1096
   41HTM    S2121345   7.465   4.572   6.264  0.1908 -0.1739  0.1357
   42TAL   C20521346   7.150   4.834   6.255  0.0875 -0.2978 -0.2252
   42TAL   C20621347   7.008   4.820   6.209  0.3298 -0.4310 -0.4533
   42TAL   C20721348   6.934   4.955   6.211  1.0015  0.1827  0.3124
   42TAL   C20821349   6.991   5.076   6.131  0.0049  0.6569  0.1190
   42TAL   C20921350   6.993   5.065   5.980  0.1047  0.1170 -0.1907
   42TAL   C21021351   7.060   5.182   5.921  0.0325 -0.3416 -0.2738
   43HTM   C21121352   7.465   4.844   6.305  0.0115 -0.0434  0.4457
   43HTM   C21221353   7.438   4.962   6.368  0.2117 -0.1633  0.7558
   43HTM   C21321354   7.555   5.042   6.395  0.3121 -0.2770  0.6595
   43HTM   C21421355   7.671   4.985   6.353  0.1875 -0.2438  0.2756
   43HTM    S2221356   7.642   4.825   6.274 -0.0669 -0.0644  0.0042
   44TAL   C21521357   7.532   5.178   6.460 -0.1696  0.7036 -0.0960
   44TAL   C21621358   7.396   5.207   6.529 -0.1606  0.3600  0.1038
   44TAL   C21721359   7.374   5.143   6.663 -0.2953  0.3340 -0.2154
   44TAL   C21821360   7.235   5.193   6.709 -0.4540 -0.4958 -0.5858
   44TAL   C21921361   7.200   5.145   6.854 -0.0574 -0.2252  0.6183
   44TAL   C22021362   7.068   5.204   6.905 -0.0207  0.4960 -0.1416
   45HTM   C22121363   7.807   5.031   6.365 -0.2301 -0.2606 -0.2639
   45HTM   C22221364   7.856   5.158   6.371 -0.4323 -0.2000  0.1731
   45HTM   C22321365   7.998   5.164   6.396 -0.5167 -0.0470  0.6301
   45HTM   C22421366   8.057   5.042   6.409 -0.3799  0.0089  0.5410
   45HTM    S2321367   7.936   4.908   6.391 -0.1301 -0.1283 -0.1314
   46TAL   C22521368   8.070   5.294   6.419 -0.7177 -0.4747 -0.4018
   46TAL   C22621369   8.116   5.357   6.281 -0.5234  0.5355 -0.2815
   46TAL   C22721370   8.190   5.489   6.297 -0.1997  0.2656 -0.2247
   46TAL   C22821371   8.321   5.491   6.376 -0.1199  0.3587  0.5278
   46TAL   C22921372   8.447   5.413   6.334  0.7914 -0.3512  0.3545
   46TAL   C23021373   8.568   5.417   6.427 -0.3688 -0.0643  0.4100
   47HTM   C23121374   8.193   4.998   6.428 -0.0740  0.0587 -0.0815
   47HTM   C23221375   8.305   5.074   6.446  0.0072 -0.0441 -0.1466
   47HTM   C23321376   8.420   4.999   6.489 -0.0420 -0.1471 -0.1953
   47HTM   C23421377   8.396   4.865   6.504 -0.1607 -0.1230 -0.1675
   47HTM    S2421378   8.225   4.824   6.464 -0.2193  0.0331 -0.0768
   48TAL   C23521379   8.545   5.070   6.536 -0.0205 -0.3795 -0.1101
   48TAL   C23621380   8.669   4.991   6.559 -0.0924  0.3634  0.3646
   48TAL   C23721381   8.775   5.090   6.594  0.1650 -0.0067  0.9252
   48TAL   C23821382   8.906   5.021   6.556  0.0548  0.2903 -0.3506
   48TAL   C23921383   9.018   5.121   6.574  0.2901 -0.1166 -0.3084
   48TAL   C24021384   9.135   5.087   6.486  0.2029  0.4773  0.0657
    1HTM     C121385   3.697   1.734   7.843 -0.6609 -0.2042 -0.6111
    1HTM     C221386   3.788   1.798   7.922 -0.5735 -0.8744 -0.1628
    1HTM     C321387   3.773   1.941   7.924 -0.0761 -0.8262  0.4530
    1HTM     C421388   3.670   1.987   7.847  0.2159 -0.1193  0.4737
    1HTM     S121389   3.584   1.851   7.765 -0.1174  0.5457 -0.2883
    2TAL     C521390   3.868   2.028   8.008  0.5956 -0.8041  0.0514
    2TAL     C621391   3.954   1.979   8.121 -0.2110  0.1335  0.0803
    2TAL     C721392   4.056   2.081   8.164  0.0770 -0.6838 -0.1298
    2TAL     C821393   4.137   2.022   8.280 -0.0170 -0.9496  0.0376
    2TAL     C921394   4.235   2.123   8.333  0.1611 -0.4313 -0.7699
    2TAL    C1021395   4.323   2.063   8.441 -0.5152  0.1243  0.3432
    3HTM    C1121396   3.607   2.121   7.825  0.0289 -0.0247  0.3030
    3HTM    C1221397   3.641   2.248   7.860  0.0788  0.0275  0.0651
    3HTM    C1321398   3.548   2.348   7.814  0.2480  0.0030 -0.3343
    3HTM    C1421399   3.443   2.297   7.744  0.3269 -0.0679 -0.4015
    3HTM     S221400   3.453   2.118   7.730  0.1926 -0.1097  0.0383
    4TAL    C1521401   3.561   2.496   7.855 -0.4380 -0.6504 -0.6440
    4TAL    C1621402   3.702   2.540   7.899  0.1167 -0.0978  0.1430
    4TAL    C1721403   3.707   2.689   7.910 -0.7896  0.1799  0.3347
    4TAL    C1821404   3.849   2.749   7.905  0.1964 -0.0844 -0.0426
    4TAL    C1921405   3.839   2.905   7.887  0.2135 -0.0332 -0.7006
    4TAL    C2021406   3.976   2.970   7.896  0.1556  0.2421  0.2102
    5HTM    C2121407   3.324   2.353   7.680  0.1274 -0.0853 -0.1205
    5HTM    C2221408   3.207   2.289   7.656  0.1354 -0.1001 -0.1202
    5HTM    C2321409   3.112   2.367   7.581  0.1019 -0.0892 -0.0663
    5HTM    C2421410   3.157   2.492   7.549  0.0684 -0.0661 -0.0256
    5HTM     S321411   3.324   2.520   7.610  0.0765 -0.0563 -0.0519
    6TAL    C2521412   2.970   2.312   7.552  0.0888 -0.3163  0.0238
    6TAL    C2621413   2.936   2.256   7.418 -0.2818  0.4468  0.4649
    6TAL    C2721414   2.790   2.209   7.412 -0.0958  0.3861  0.0200
    6TAL    C2821415   2.747   2.209   7.269 -0.4518  1.0756 -0.2736
    6TAL    C2921416   2.601   2.177   7.230  0.0638 -0.2342  0.5792
    6TAL    C3021417   2.564   2.029   7.253  1.0188  0.4122 -0.7213
    7HTM    C3121418   3.095   2.602   7.478 -0.0894 -0.2570  0.1476
    7HTM    C3221419   3.010   2.594   7.371 -0.0961 -0.5080  0.1702
    7HTM    C3321420   2.954   2.721   7.333 -0.2942 -0.6368  0.0334
    7HTM    C3421421   2.996   2.825   7.410 -0.4386 -0.4842 -0.0940
    7HTM     S421422   3.111   2.771   7.538 -0.3347 -0.1632 -0.0505
    8TAL    C3521423   2.850   2.722   7.219 -0.1636  0.5319 -0.0563
    8TAL    C3621424   2.718   2.647   7.243  0.7668  0.3064  0.6276
    8TAL    C3721425   2.615   2.693   7.342 -0.0033 -0.1400 -0.1879
    8TAL    C3821426   2.491   2.612   7.339 -0.6162  0.2536  0.0309
    8TAL    C3921427   2.407   2.611   7.467  1.0872 -0.5477  0.4555
    8TAL    C4021428   2.298   2.510   7.472  0.4496 -0.5748  0.5143
    9HTM    C4121429   2.953   2.969   7.405  0.0690  0.1113 -0.0003
    9HTM    C4221430   2.850   3.006   7.487  0.3889  0.0612  0.4265
    9HTM    C4321431   2.829   3.148   7.493  0.3504  0.0514  0.5214
    9HTM    C4421432   2.916   3.220   7.415  0.0012  0.0943  0.1663
    9HTM     S521433   3.032   3.112   7.328 -0.3084  0.1509 -0.3190
   10TAL    C4521434   2.734   3.207   7.587 -0.5643  0.7423  0.1889
   10TAL    C4621435   2.634   3.122   7.670  0.3968 -0.6366 -0.3615
   10TAL    C4721436   2.520   3.077   7.588 -0.0536  0.5454 -0.7762
   10TAL    C4821437   2.397   3.038   7.672 -0.1083 -0.3206 -0.3509
   10TAL    C4921438   2.300   2.947   7.605  0.3293  0.0999 -0.2467
   10TAL    C5021439   2.199   2.890   7.705  0.0667 -0.1598 -0.1136
   11HTM    C5121440   2.942   3.364   7.409 -0.0036 -0.1000 -0.2947
   11HTM    C5221441   3.067   3.418   7.409 -0.0545  0.0165 -0.6216
   11HTM    C5321442   3.067   3.562   7.416 -0.1677  0.0143 -0.5653
   11HTM    C5421443   2.943   3.617   7.422 -0.2034 -0.1040 -0.1959
   11HTM     S621444   2.814   3.491   7.419 -0.0956 -0.2226  0.1124
   12TAL    C5521445   3.191   3.645   7.395  0.1869  0.0232  0.2514
   12TAL    C5621446   3.226   3.660   7.245 -0.1234 -0.9446  0.0956
   12TAL    C5721447   3.346   3.745   7.240  0.8643 -0.1403  0.1774
   12TAL    C5821448   3.397   3.766   7.096 -0.5153  0.1729 -0.3326
   12TAL    C5921449   3.528   3.843   7.079 -0.1782  0.2544  0.1497
   12TAL    C6021450   3.644   3.772   7.129 -0.6790  0.0146  0.0218
   13HTM    C6121451   2.899   3.758   7.426 -0.0217 -0.3534  0.4555
   13HTM    C6221452   2.790   3.804   7.359 -0.4213 -0.6003  0.9263
   13HTM    C6321453   2.788   3.947   7.343 -0.7423 -0.6169  0.8080
   13HTM    C6421454   2.896   4.010   7.399 -0.5875 -0.3829  0.2468
   13HTM     S721455   3.009   3.892   7.475 -0.0200 -0.1207 -0.1790
   14TAL    C6521456   2.665   4.010   7.281 -0.0418 -0.4245  0.4776
   14TAL    C6621457   2.627   3.986   7.133  0.3315 -0.0707  0.4008
   14TAL    C6721458   2.693   4.060   7.011 -0.2896 -0.5759 -0.4743
   14TAL    C6821459   2.688   4.210   7.017 -0.1956  0.4236 -0.4245
   14TAL    C6921460   2.761   4.278   6.900  0.7932 -0.4746  0.8764
   14TAL    C7021461   2.912   4.264   6.893  0.2376  0.4173 -0.0213
   15HTM    C7121462   2.933   4.151   7.415  0.1112  0.1944  0.5896
   15HTM    C7221463   3.027   4.208   7.496 -0.1394  0.6628  0.5586
   15HTM    C7321464   3.039   4.350   7.481 -0.3513  0.6273  0.0393
   15HTM    C7421465   2.954   4.403   7.388 -0.2623  0.1317 -0.3254
   15HTM     S821466   2.852   4.275   7.311  0.0989 -0.3319 -0.0392
   16TAL    C7521467   3.133   4.440   7.566 -0.2526  0.1263 -0.2249
   16TAL    C7621468   3.267   4.374   7.618 -0.3098 -0.3954 -0.1612
   16TAL    C7721469   3.344   4.437   7.737 -0.2330  0.2757  0.6207
   16TAL    C7821470   3.397   4.583   7.722  0.6300 -0.0742 -0.8236
   16TAL    C7921471   3.466   4.644   7.845  0.8628  0.2337  0.1188
   16TAL    C8021472   3.473   4.796   7.831 -0.1742  0.3484  0.1764
   17HTM    C8121473   2.925   4.535   7.337  0.0224  0.0143 -0.1211
   17HTM    C8221474   2.905   4.569   7.207 -0.2354 -0.0370 -0.0951
   17HTM    C8321475   2.884   4.710   7.186 -0.4818 -0.0715 -0.0863
   17HTM    C8421476   2.888   4.783   7.300 -0.4117 -0.0464 -0.1057
   17HTM     S921477   2.919   4.680   7.445 -0.0261  0.0233 -0.1363
   18TAL    C8521478   2.857   4.770   7.046 -0.6303 -0.4952  0.4282
   18TAL    C8621479   2.862   4.670   6.929  0.6766 -0.0548  0.4579
   18TAL    C8721480   2.815   4.711   6.794  0.5294 -0.0460  1.0638
   18TAL    C8821481   2.664   4.710   6.773  0.4345 -0.2094  0.0141
   18TAL    C8921482   2.600   4.573   6.777 -0.2410  0.0373 -0.1903
   18TAL    C9021483   2.456   4.578   6.752 -0.0094  0.4422 -0.3735
   19HTM    C9121484   2.887   4.930   7.313  0.0302 -0.1880  0.5012
   19HTM    C9221485   2.988   5.013   7.275  0.1098 -0.2468  0.5834
   19HTM    C9321486   2.958   5.153   7.297  0.0582 -0.2124  0.2885
   19HTM    C9421487   2.835   5.175   7.350 -0.0610 -0.1277 -0.0191
   19HTM    S1021488   2.746   5.021   7.378 -0.1173 -0.0839  0.0408
   20TAL    C9521489   3.063   5.256   7.262 -0.4669 -0.1267  0.4987
   20TAL    C9621490   3.036   5.336   7.130 -0.4950 -0.4973  0.1812
   20TAL    C9721491   2.999   5.258   7.007 -0.0211  0.3856  0.1898
   20TAL    C9821492   3.090   5.139   6.973  0.2414 -0.1236 -0.3916
   20TAL    C9921493   3.099   5.078   6.830  0.3823  0.3272 -0.1606
   20TAL   C10021494   2.965   5.039   6.773  0.2111  0.4285  0.1752
   21HTM   C10121495   2.758   5.299   7.373  0.4390  0.2763 -0.1889
   21HTM   C10221496   2.633   5.327   7.328  0.3444 -0.0603 -0.1354
   21HTM   C10321497   2.593   5.464   7.347 -0.0736 -0.2015  0.0215
   21HTM   C10421498   2.689   5.541   7.407 -0.2975  0.0273  0.0870
   21HTM    S1121499   2.837   5.445   7.444  0.0042  0.4425 -0.0446
   22TAL   C10521500   2.467   5.515   7.279 -0.0447  0.9246 -0.0931
   22TAL   C10621501   2.467   5.549   7.128  0.2978  0.3118 -0.5111
   22TAL   C10721502   2.550   5.482   7.025 -0.9244  0.0826 -0.3728
   22TAL   C10821503   2.537   5.334   7.014  0.0743  1.3820  0.6848
   22TAL   C10921504   2.643   5.274   6.920 -0.0595  0.1368  0.2188
   22TAL   C11021505   2.675   5.126   6.926 -0.1163  0.0267  0.1682
   23HTM   C11121506   2.686   5.680   7.458 -0.5101  0.0589 -0.0612
   23HTM   C11221507   2.793   5.764   7.464 -0.4430 -0.0229 -0.1080
   23HTM   C11321508   2.759   5.899   7.504 -0.3406  0.0346 -0.2158
   23HTM   C11421509   2.626   5.917   7.527 -0.3298  0.1597 -0.2509
   23HTM    S1221510   2.533   5.765   7.501 -0.4488  0.2156 -0.1503
   24TAL   C11521511   2.863   6.006   7.516 -0.4469  0.1412  0.2143
   24TAL   C11621512   2.992   5.999   7.438  0.6979  0.1294 -0.1022
   24TAL   C11721513   3.098   6.085   7.508  0.1936 -0.0357  0.4806
   24TAL   C11821514   3.238   6.057   7.460 -0.1673 -0.0188  0.2311
   24TAL   C11921515   3.302   5.920   7.489  0.4662 -0.6517  0.0846
   24TAL   C12021516   3.457   5.921   7.476  0.3731 -0.4502  0.4620
   25HTM   C12121517   2.548   6.041   7.543  0.3132  0.0029 -0.2591
   25HTM   C12221518   2.414   6.038   7.566  0.3592 -0.3834 -0.0474
   25HTM   C12321519   2.352   6.168   7.572  0.0134 -0.5546  0.1671
   25HTM   C12421520   2.439   6.271   7.553 -0.2965 -0.2993  0.1190
   25HTM    S1321521   2.608   6.211   7.526 -0.1745  0.1813 -0.2029
   26TAL   C12521522   2.207   6.174   7.614 -0.0074 -0.6140  0.5180
   26TAL   C12621523   2.122   6.050   7.626  0.4922 -0.4829  0.2020
   26TAL   C12721524   1.973   6.075   7.640 -0.8934  0.7006 -0.5074
   26TAL   C12821525   1.913   5.935   7.656 -0.0246  0.8884  0.1998
   26TAL   C12921526   1.762   5.955   7.644  0.0538  0.4541 -0.4056
   26TAL   C13021527   1.689   5.838   7.714 -0.0256  0.3806  0.4318
   27HTM   C13121528   2.405   6.411   7.542 -0.1669  0.1049  0.2800
   27HTM   C13221529   2.480   6.517   7.584 -0.4687  0.1757  0.6435
   27HTM   C13321530   2.428   6.645   7.544 -0.5391  0.1397  0.6192
   27HTM   C13421531   2.314   6.637   7.471 -0.2907  0.0411  0.2376
   27HTM    S1421532   2.262   6.465   7.447  0.0537 -0.0136 -0.1236
   28TAL   C13521533   2.493   6.777   7.588 -0.3309  0.0534  0.0691
   28TAL   C13621534   2.616   6.823   7.514  0.0185 -0.1501  0.8013
   28TAL   C13721535   2.661   6.967   7.513 -0.3546  0.3059  0.1698
   28TAL   C13821536   2.565   7.073   7.476  0.2725  0.2532  0.1813
   28TAL   C13921537   2.625   7.213   7.485 -0.0174  1.1116 -0.2014
   28TAL   C14021538   2.543   7.322   7.423 -0.0260  0.2180  0.0326
   29HTM   C14121539   2.234   6.743   7.412  0.2933  0.0566 -0.3682
   29HTM   C14221540   2.273   6.863   7.360  0.3849 -0.0460 -0.5398
   29HTM   C14321541   2.163   6.948   7.322  0.4493 -0.0136 -0.6523
   29HTM   C14421542   2.040   6.893   7.344  0.4070  0.1139 -0.5664
   29HTM    S1521543   2.054   6.727   7.415  0.2814  0.2028 -0.3354
   30TAL   C14521544   2.202   7.086   7.271 -0.1345 -0.1531 -0.2607
   30TAL   C14621545   2.270   7.094   7.132 -0.0283  0.3029 -0.1986
   30TAL   C14721546   2.320   7.238   7.111  0.6725 -0.3215 -0.7969
   30TAL   C14821547   2.407   7.281   6.992  0.0652 -0.3465  0.2464
   30TAL   C14921548   2.487   7.169   6.918 -0.0573 -0.2576 -0.4732
   30TAL   C15021549   2.539   7.216   6.779 -0.5089 -0.1581 -0.6273
   31HTM   C15121550   1.912   6.957   7.319 -0.1472 -0.4225 -0.2579
   31HTM   C15221551   1.799   6.928   7.390 -0.1838 -0.4065 -0.3102
   31HTM   C15321552   1.680   6.990   7.337 -0.0995 -0.1290 -0.1745
   31HTM   C15421553   1.702   7.066   7.227  0.0013  0.0664 -0.0194
   31HTM    S1621554   1.877   7.066   7.180 -0.0024 -0.0859 -0.0321
   32TAL   C15521555   1.542   6.974   7.403 -0.4923  0.1699  0.4742
   32TAL   C15621556   1.521   6.846   7.493 -0.2602 -0.6672  0.0879
   32TAL   C15721557   1.398   6.859   7.588 -0.5232  0.2562  0.0764
   32TAL   C15821558   1.260   6.864   7.532  0.3796 -0.0629 -0.3220
   32TAL   C15921559   1.206   6.724   7.505 -0.0590 -0.0511 -0.0343
   32TAL   C16021560   1.058   6.734   7.465 -0.5538 -0.0184 -0.3290
   33HTM   C16121561   1.618   7.144   7.142 -0.1031  0.3333  0.2444
   33HTM   C16221562   1.640   7.171   7.010 -0.1130  0.1221  0.1988
   33HTM   C16321563   1.530   7.239   6.946 -0.1318 -0.0112  0.0889
   33HTM   C16421564   1.425   7.264   7.029 -0.1364  0.0980  0.0510
   33HTM    S1721565   1.456   7.202   7.196 -0.1171  0.3804  0.1516
   34TAL   C16521566   1.550   7.297   6.807 -0.3772  0.3292  0.1092
   34TAL   C16621567   1.582   7.192   6.696 -0.8132 -0.2045 -0.2022
   34TAL   C16721568   1.475   7.082   6.688  0.4973 -0.4303 -0.6887
   34TAL   C16821569   1.517   6.952   6.626 -0.7485  0.0718  0.1019
   34TAL   C16921570   1.417   6.849   6.650  0.3689 -1.2473  0.2617
   34TAL   C17021571   1.467   6.711   6.613  0.1787  0.1587 -0.6027
   35HTM   C17121572   1.295   7.322   6.997  0.1653 -0.2182  0.2944
   35HTM   C17221573   1.214   7.292   6.892  0.2226 -0.5200  0.3352
   35HTM   C17321574   1.084   7.354   6.899  0.1458 -0.6614  0.1891
   35HTM   C17421575   1.066   7.431   7.010  0.0299 -0.4679  0.0368
   35HTM    S1821576   1.214   7.432   7.115  0.0086 -0.0885  0.0663
   36TAL   C17521577   0.979   7.339   6.790  0.4113  0.4072  0.3696
   36TAL   C17621578   0.891   7.218   6.800 -0.3343 -0.8388  0.1093
   36TAL   C17721579   0.956   7.083   6.768  0.3155  0.3986  0.0254
   36TAL   C17821580   0.966   7.020   6.628  0.2950  0.3982  0.2869
   36TAL   C17921581   1.002   6.869   6.652  0.5994  0.2502 -0.4978
   36TAL   C18021582   1.038   6.790   6.524  0.4051 -0.2486 -0.4887
   37HTM   C18121583   0.948   7.489   7.073 -0.2583 -0.6020  0.1068
   37HTM   C18221584   0.841   7.542   7.007 -0.2162 -0.6478  0.0002
   37HTM   C18321585   0.730   7.572   7.094 -0.1602 -0.3049 -0.0455
   37HTM   C18421586   0.752   7.542   7.225 -0.1597  0.0024  0.0265
   37HTM    S1921587   0.917   7.472   7.250 -0.2302 -0.1182  0.1580
   38TAL   C18521588   0.611   7.652   7.040 -0.0133  0.0800  1.0691
   38TAL   C18621589   0.604   7.804   7.072  0.0467 -0.7689  0.3527
   38TAL   C18721590   0.604   7.852   7.212 -0.4080  0.3439 -0.3721
   38TAL   C18821591   0.605   8.007   7.214 -0.1075  0.0601 -0.2594
   38TAL   C18921592   0.614   8.075   7.346 -0.0066 -0.1234 -0.5286
   38TAL   C19021593   0.670   8.210   7.324  0.1315  0.0725  0.2465
   39HTM   C19121594   0.659   7.533   7.335 -0.1622 -0.0846 -0.2732
   39HTM   C19221595   0.523   7.534   7.350 -0.1495  0.4158 -0.1822
   39HTM   C19321596   0.479   7.524   7.486 -0.0933  0.8602 -0.1295
   39HTM   C19421597   0.581   7.514   7.576 -0.0631  0.6988 -0.1797
   39HTM    S2021598   0.742   7.518   7.495 -0.1036 -0.0325 -0.2992
   40TAL   C19521599   0.331   7.507   7.520  0.5278  0.1950  0.6263
   40TAL   C19621600   0.258   7.633   7.569  0.2220 -0.5765 -0.0310
   40TAL   C19721601   0.126   7.608   7.648 -0.3546 -0.4148  0.3009
   40TAL   C19821602   0.068   7.751   7.670  0.8369  0.2312  0.0338
   40TAL   C19921603  -0.035   7.750   7.781 -0.3715  0.2243  0.3389
   40TAL   C20021604  -0.098   7.888   7.809 -0.0432 -0.3549 -0.3236
   41HTM   C20121605   0.581   7.498   7.720  0.0493  0.3907  0.1387
   41HTM   C20221606   0.507   7.558   7.818  0.4959  0.6690  0.3095
   41HTM   C20321607   0.543   7.517   7.951  0.6249  0.5054  0.2255
   41HTM   C20421608   0.645   7.426   7.955  0.2766  0.1029 -0.0096
   41HTM    S2121609   0.703   7.385   7.790 -0.2454 -0.1036 -0.1441
   42TAL   C20521610   0.489   7.577   8.083  0.2970 -0.1378 -0.2088
   42TAL   C20621611   0.409   7.706   8.091  0.2069 -0.2406 -0.1861
   42TAL   C20721612   0.486   7.836   8.068  0.0082  0.1435  0.1368
   42TAL   C20821613   0.387   7.953   8.076 -0.1019  0.8103 -0.2110
   42TAL   C20921614   0.461   8.090   8.074 -0.0376  0.3862  0.2393
   42TAL   C21021615   0.359   8.206   8.073 -0.1141  0.1101 -0.5112
   43HTM   C21121616   0.712   7.362   8.061 -0.2761 -0.0782  0.2539
   43HTM   C21221617   0.656   7.269   8.144  0.0453 -0.3967  0.1159
   43HTM   C21321618   0.752   7.198   8.225  0.2979 -0.2356 -0.0424
   43HTM   C21421619   0.881   7.237   8.203  0.1691  0.2056 -0.0252
   43HTM    S2221620   0.891   7.367   8.079 -0.2847  0.4540  0.1943
   44TAL   C21521621   0.718   7.085   8.320 -0.1821  0.4325 -0.2451
   44TAL   C21621622   0.650   6.961   8.267 -0.2807  0.4625  0.4720
   44TAL   C21721623   0.740   6.884   8.169 -0.2424 -0.8319 -0.0880
   44TAL   C21821624   0.849   6.806   8.245  0.4598  0.1834 -0.6413
   44TAL   C21921625   0.954   6.737   8.158 -0.3989 -0.1248  0.1609
   44TAL   C22021626   1.046   6.649   8.244 -0.3364 -0.0672  0.1077
   45HTM   C22121627   1.001   7.203   8.273  0.0894  0.2034 -0.2970
   45HTM   C22221628   1.091   7.284   8.336  0.2378  0.6580 -1.0810
   45HTM   C22321629   1.216   7.221   8.366  0.3645  0.9162 -1.0648
   45HTM   C22421630   1.223   7.091   8.325  0.3128  0.6584 -0.2669
   45HTM    S2321631   1.070   7.038   8.246  0.0984  0.0648  0.5311
   46TAL   C22521632   1.326   7.314   8.425  0.4122 -0.1717  0.6097
   46TAL   C22621633   1.391   7.399   8.311 -0.2736  0.7652 -0.3322
   46TAL   C22721634   1.312   7.528   8.299 -0.1702 -0.3018 -0.1273
   46TAL   C22821635   1.339   7.618   8.178 -0.0509 -0.0517 -0.1348
   46TAL   C22921636   1.237   7.737   8.154  0.4657 -0.0468 -0.1955
   46TAL   C23021637   1.095   7.696   8.111  0.1201 -0.3536  0.3758
   47HTM   C23121638   1.328   6.990   8.342  0.2732  0.0975 -0.1914
   47HTM   C23221639   1.308   6.862   8.383  0.0123  0.1216 -0.2422
   47HTM   C23321640   1.430   6.790   8.412 -0.1414 -0.0646 -0.0496
   47HTM   C23421641   1.543   6.864   8.392  0.0021 -0.2307  0.1475
   47HTM    S2421642   1.504   7.031   8.336  0.3453 -0.1644  0.1051
   48TAL   C23521643   1.425   6.649   8.458 -0.0192  0.5717  0.0473
   48TAL   C23621644   1.509   6.619   8.580 -0.5182 -0.6065  1.0308
   48TAL   C23721645   1.501   6.478   8.633 -0.0341 -0.4345 -0.1318
   48TAL   C23821646   1.612   6.439   8.735 -0.2184 -0.5609  0.8696
   48TAL   C23921647   1.594   6.295   8.771 -0.5018 -0.6890  0.3033
   48TAL   C24021648   1.722   6.234   8.827 -0.6968  0.0861 -0.2825
    1HTM     C121649   1.605   2.027   8.821  0.0696 -0.2657 -0.7227
    1HTM     C221650   1.549   1.904   8.805  0.2770 -0.3036 -1.1635
    1HTM     C321651   1.639   1.795   8.832  0.2158 -0.2440 -0.7119
    1HTM     C421652   1.764   1.835   8.869 -0.0382 -0.1606  0.0737
    1HTM     S121653   1.778   2.015   8.872 -0.2212 -0.1508  0.3051
    2TAL     C521654   1.584   1.657   8.821 -0.3532  0.3775 -0.1259
    2TAL     C621655   1.561   1.613   8.676 -0.1348  0.4382 -0.0098
    2TAL     C721656   1.676   1.579   8.590  0.1971  0.1690  0.2466
    2TAL     C821657   1.626   1.502   8.467 -0.1766  0.4652  0.0073
    2TAL     C921658   1.747   1.458   8.386  0.1975  0.2840 -0.3067
    2TAL    C1021659   1.716   1.405   8.256  0.6615 -0.8662  0.0642
    3HTM    C1121660   1.887   1.758   8.899  0.1661 -0.3430 -0.0381
    3HTM    C1221661   1.923   1.629   8.872  0.1557 -0.4838  0.6042
    3HTM    C1321662   2.054   1.595   8.921  0.1140 -0.2813  0.8636
    3HTM    C1421663   2.118   1.697   8.985  0.0928  0.0138  0.4182
    3HTM     S221664   2.016   1.846   8.989  0.1237  0.0592 -0.3688
    4TAL    C1521665   2.104   1.451   8.921  0.2348 -0.6439  0.3709
    4TAL    C1621666   2.034   1.344   8.840  0.1650  0.2196 -0.0885
    4TAL    C1721667   2.101   1.317   8.700 -0.0106  0.2413 -0.1934
    4TAL    C1821668   2.031   1.210   8.612 -0.0241  0.0266  0.5583
    4TAL    C1921669   2.101   1.166   8.484  0.2013 -0.0559  0.0365
    4TAL    C2021670   2.046   1.046   8.393 -0.0739 -0.4170  0.2731
    5HTM    C2121671   2.243   1.696   9.052 -0.0426  0.0481 -0.9718
    5HTM    C2221672   2.273   1.792   9.145 -0.1802  0.3539 -1.2416
    5HTM    C2321673   2.403   1.777   9.203 -0.3445  0.4307 -0.8540
    5HTM    C2421674   2.473   1.670   9.156 -0.3320  0.1836 -0.2887
    5HTM     S321675   2.378   1.579   9.032 -0.1102 -0.1680 -0.2014
    6TAL    C2521676   2.460   1.870   9.315 -0.3131 -0.9070 -0.1419
    6TAL    C2621677   2.361   1.936   9.410 -0.7757  0.2757  0.3340
    6TAL    C2721678   2.421   2.053   9.478  0.1165 -0.1822 -0.2578
    6TAL    C2821679   2.323   2.112   9.580 -0.5167  0.5646 -0.4631
    6TAL    C2921680   2.397   2.225   9.658  0.4615  0.1301  0.4539
    6TAL    C3021681   2.418   2.350   9.578  0.3592  0.4345 -0.0800
    7HTM    C3121682   2.601   1.616   9.178 -0.1185  0.0479 -0.0793
    7HTM    C3221683   2.667   1.614   9.297 -0.3361 -0.1661  0.0394
    7HTM    C3321684   2.793   1.544   9.292 -0.2774 -0.0658  0.1172
    7HTM    C3421685   2.822   1.493   9.170 -0.0151  0.2246  0.0579
    7HTM     S421686   2.693   1.529   9.049  0.1796  0.3952 -0.1021
    8TAL    C3521687   2.879   1.533   9.418 -0.0105  0.8208  0.8927
    8TAL    C3621688   2.807   1.462   9.533  0.0795 -0.2783  0.7973
    8TAL    C3721689   2.758   1.318   9.511  0.0731  0.6841 -0.8074
    8TAL    C3821690   2.676   1.263   9.637 -0.2117 -0.2511  0.5394
    8TAL    C3921691   2.623   1.127   9.616 -0.0103 -0.7744 -0.5749
    8TAL    C4021692   2.505   1.124   9.525 -0.1697  0.1398  0.1429
    9HTM    C4121693   2.927   1.400   9.129 -0.4558 -0.1568  0.0339
    9HTM    C4221694   2.906   1.283   9.062 -0.2269 -0.0527 -0.2190
    9HTM    C4321695   3.023   1.200   9.054 -0.0136  0.2771 -0.5629
    9HTM    C4421696   3.133   1.253   9.114 -0.0800  0.4246 -0.5722
    9HTM     S521697   3.097   1.414   9.187 -0.4195  0.1563 -0.1441
   10TAL    C4521698   3.017   1.065   8.977  0.4596 -0.5858  0.2006
   10TAL    C4621699   2.900   1.034   8.891  0.1780 -0.1056 -0.6849
   10TAL    C4721700   2.888   1.115   8.760  1.0228  0.3565  0.1174
   10TAL    C4821701   2.751   1.154   8.697 -0.7092  0.7912  0.6758
   10TAL    C4921702   2.675   1.269   8.759 -0.4283 -1.1280  0.0623
   10TAL    C5021703   2.540   1.298   8.688  0.0544 -0.5415 -0.0662
   11HTM    C5121704   3.272   1.204   9.124  0.2281 -0.0206 -0.0246
   11HTM    C5221705   3.318   1.081   9.089  0.2710  0.0080 -0.0677
   11HTM    C5321706   3.453   1.054   9.134  0.2604  0.0180 -0.0300
   11HTM    C5421707   3.509   1.158   9.203  0.2095 -0.0029  0.0420
   11HTM     S621708   3.395   1.297   9.218  0.1707 -0.0373  0.0678
   12TAL    C5521709   3.515   0.924   9.108  0.3800  0.2664 -0.2098
   12TAL    C5621710   3.438   0.809   9.039 -0.6607  0.2904 -0.2619
   12TAL    C5721711   3.311   0.756   9.108 -0.5957 -0.0060 -0.5089
   12TAL    C5821712   3.248   0.643   9.033  0.2348  0.0923 -0.5485
   12TAL    C5921713   3.108   0.604   9.084  0.4210 -0.2438  0.5361
   12TAL    C6021714   2.994   0.693   9.037  0.7610 -0.4027 -0.0162
   13HTM    C6121715   3.639   1.174   9.259  0.1512 -0.0603 -0.3756
   13HTM    C6221716   3.705   1.293   9.275  0.4350 -0.1828 -0.6229
   13HTM    C6321717   3.838   1.279   9.328  0.3797 -0.3859 -0.5362
   13HTM    C6421718   3.874   1.150   9.353  0.0538 -0.4183 -0.2227
   13HTM     S721719   3.742   1.035   9.311 -0.2108 -0.1930 -0.0111
   14TAL    C6521720   3.923   1.401   9.354  0.0344 -0.4608 -0.2092
   14TAL    C6621721   3.861   1.537   9.403  0.3718  0.3122 -0.1022
   14TAL    C6721722   3.961   1.652   9.445  0.1245  0.1887 -0.4373
   14TAL    C6821723   4.072   1.609   9.543 -0.2757  0.3941  0.3588
   14TAL    C6921724   4.152   1.719   9.625 -0.2439  0.3956  0.6633
   14TAL    C7021725   4.223   1.650   9.740 -0.2451 -0.1445  0.0171
   15HTM    C7121726   3.994   1.088   9.405 -0.2288  0.4173  0.0686
   15HTM    C7221727   4.009   0.954   9.428 -0.6328  0.3864  0.1554
   15HTM    C7321728   4.141   0.917   9.472 -0.6568 -0.0283 -0.1191
   15HTM    C7421729   4.227   1.023   9.481 -0.2709 -0.3135 -0.4152
   15HTM     S821730   4.147   1.178   9.436  0.1557 -0.0787 -0.3699
   16TAL    C7521731   4.178   0.773   9.511  0.3835 -0.8866  0.3237
   16TAL    C7621732   4.068   0.666   9.513 -0.7785 -0.0133  0.3807
   16TAL    C7721733   4.100   0.551   9.599 -0.2842 -0.4876 -0.1692
   16TAL    C7821734   3.995   0.434   9.606 -0.5808 -0.0417 -0.4929
   16TAL    C7921735   3.955   0.375   9.467 -0.1956  0.1919 -0.8146
   16TAL    C8021736   3.883   0.237   9.460  0.3737  0.6796 -0.4371
   17HTM    C8121737   4.372   1.031   9.510 -0.2917 -0.3153  0.1517
   17HTM    C8221738   4.453   1.139   9.492 -0.6268  0.0151  0.6131
   17HTM    C8321739   4.589   1.118   9.536 -0.6123  0.3260  0.7258
   17HTM    C8421740   4.611   0.993   9.587 -0.2662  0.2327  0.3504
   17HTM     S921741   4.461   0.892   9.583  0.0704 -0.2590 -0.1788
   18TAL    C8521742   4.691   1.230   9.526 -0.3869 -0.1733 -0.0628
   18TAL    C8621743   4.678   1.361   9.441 -0.2281 -0.6901  0.0337
   18TAL    C8721744   4.561   1.454   9.463  0.0591  0.4031 -0.7226
   18TAL    C8821745   4.540   1.564   9.366  0.4076  0.4071  0.1604
   18TAL    C8921746   4.409   1.647   9.387  0.0261  0.2504  0.6815
   18TAL    C9021747   4.411   1.762   9.287  0.6866  0.2061 -0.3273
   19HTM    C9121748   4.731   0.926   9.633 -0.0196  0.0806 -0.3576
   19HTM    C9221749   4.825   0.984   9.713 -0.0110  0.3018 -0.5282
   19HTM    C9321750   4.940   0.902   9.737  0.0308  0.4014 -0.3824
   19HTM    C9421751   4.935   0.780   9.675  0.0541  0.2561 -0.1006
   19HTM    S1021752   4.782   0.761   9.581  0.0250 -0.0199  0.0032
   20TAL    C9521753   5.056   0.960   9.814 -0.2000  0.3037 -0.3845
   20TAL    C9621754   5.043   0.971   9.968 -0.4835 -0.6949 -0.6276
   20TAL    C9721755   5.152   1.063  10.024 -0.4584  0.1204 -0.6245
   20TAL    C9821756   5.153   1.063  10.176  0.6367 -0.0173  0.4399
   20TAL    C9921757   5.280   1.120  10.225 -0.0290 -0.1508 -0.4927
   20TAL   C10021758   5.299   1.102  10.376 -0.0780  0.2790  0.5902
   21HTM   C10121759   5.041   0.671   9.664 -0.1738  0.1564  0.0159
   21HTM   C10221760   5.024   0.537   9.652 -0.2625  0.1290  0.4285
   21HTM   C10321761   5.148   0.463   9.645 -0.3109  0.0336  0.5700
   21HTM   C10421762   5.259   0.542   9.651 -0.2590 -0.0118  0.2653
   21HTM    S1121763   5.215   0.717   9.667 -0.1441  0.0630 -0.2278
   22TAL   C10521764   5.159   0.307   9.633 -0.6157  0.9512  0.3662
   22TAL   C10621765   5.033   0.221   9.638  0.5478 -0.1355  0.8955
   22TAL   C10721766   5.065   0.070   9.621 -0.1631  0.3214 -0.7044
   22TAL   C10821767   4.941  -0.025   9.636 -0.1593 -0.4155 -0.5942
   22TAL   C10921768   4.816   0.006   9.559  0.0054 -0.1291  0.3030
   22TAL   C11021769   4.712  -0.103   9.555  0.3535  0.6856 -0.0898
   23HTM   C11121770   5.401   0.514   9.646 -0.0687 -0.2135  0.0854
   23HTM   C11221771   5.496   0.596   9.592 -0.0153  0.2623  0.8737
   23HTM   C11321772   5.630   0.545   9.606  0.0656  0.6182  1.4160
   23HTM   C11421773   5.637   0.426   9.671  0.0734  0.4137  1.0413
   23HTM    S1221774   5.474   0.367   9.720 -0.0204 -0.2493 -0.0340
   24TAL   C11521775   5.753   0.628   9.567  0.0177  0.0287  0.0801
   24TAL   C11621776   5.746   0.729   9.456  0.1844 -0.2224  0.3507
   24TAL   C11721777   5.873   0.810   9.444  0.1418  0.2945 -0.3476
   24TAL   C11821778   6.001   0.731   9.405  0.4090 -0.1128  0.1911
   24TAL   C11921779   6.114   0.814   9.452 -0.7229 -0.0292 -0.6896
   24TAL   C12021780   6.254   0.752   9.435 -0.0359 -0.9782 -0.0702
   25HTM   C12121781   5.755   0.351   9.708  0.3230  0.0746  0.0837
   25HTM   C12221782   5.856   0.308   9.628  0.3314 -0.2113  0.2509
   25HTM   C12321783   5.979   0.283   9.699  0.2007 -0.3738  0.4217
   25HTM   C12421784   5.971   0.309   9.833  0.0926 -0.2117  0.3847
   25HTM    S1321785   5.806   0.365   9.880  0.1477  0.1615  0.1293
   26TAL   C12521786   6.093   0.219   9.617  0.8040  0.4963 -0.1778
   26TAL   C12621787   6.200   0.308   9.564 -0.0190  0.0167 -0.4206
   26TAL   C12721788   6.317   0.261   9.487 -0.2891  0.0458 -0.6559
   26TAL   C12821789   6.380   0.388   9.429  0.1072  0.3985  0.3581
   26TAL   C12921790   6.511   0.344   9.361 -0.3383  0.5637  0.3671
   26TAL   C13021791   6.588   0.477   9.346  0.7658  0.3046  0.8553
   27HTM   C13121792   6.067   0.291   9.939  0.0451 -0.1371 -0.0710
   27HTM   C13221793   6.072   0.196  10.037  0.3254 -0.1721 -0.1178
   27HTM   C13321794   6.185   0.210  10.125  0.4911 -0.1090 -0.3409
   27HTM   C13421795   6.267   0.315  10.093  0.3375 -0.0260 -0.4643
   27HTM    S1421796   6.206   0.405   9.949 -0.0321 -0.0209 -0.3068
   28TAL   C13521797   6.197   0.119  10.244  0.0723  0.1682 -0.5888
   28TAL   C13621798   6.132   0.169  10.372  0.2212  0.8653 -0.2973
   28TAL   C13721799   6.189   0.098  10.496  0.0411 -0.4209 -0.1178
   28TAL   C13821800   6.126  -0.040  10.527 -0.1009 -0.3194  0.2403
   28TAL   C13921801   5.979  -0.036  10.570 -0.1734 -0.1485 -0.5101
   28TAL   C14021802   5.916  -0.175  10.595  0.4488 -0.2358  0.0220
   29HTM   C14121803   6.394   0.364  10.151  0.0584 -0.2822  0.1271
   29HTM   C14221804   6.426   0.379  10.283  0.2525 -0.7152  0.1299
   29HTM   C14321805   6.559   0.429  10.305  0.1893 -0.5274  0.0899
   29HTM   C14421806   6.629   0.452  10.190 -0.0529  0.0487  0.0568
   29HTM    S1521807   6.530   0.413  10.044 -0.2210  0.4015  0.0737
   30TAL   C14521808   6.615   0.438  10.444  0.1484 -0.0751 -0.5130
   30TAL   C14621809   6.548   0.535  10.545 -0.1812 -0.0351 -0.6067
   30TAL   C14721810   6.529   0.684  10.512  0.0767 -0.0491 -0.3354
   30TAL   C14821811   6.642   0.781  10.491 -0.5973  0.6587  0.0387
   30TAL   C14921812   6.722   0.817  10.618 -0.1518  0.2315  0.2338
   30TAL   C15021813   6.644   0.919  10.699  0.1779 -0.1662 -0.4165
   31HTM   C15121814   6.765   0.501  10.165 -0.1570 -0.4106 -0.2576
   31HTM   C15221815   6.805   0.578  10.059  0.1745 -0.5509 -0.2362
   31HTM   C15321816   6.943   0.619  10.066  0.1423 -0.5036  0.1635
   31HTM   C15421817   7.008   0.574  10.177 -0.2133 -0.3273  0.4469
   31HTM    S1621818   6.900   0.476  10.282 -0.5384 -0.2063  0.2293
   32TAL   C15521819   7.008   0.688   9.954 -0.6024  0.2554  0.2361
   32TAL   C15621820   6.991   0.622   9.815  0.6970  0.0180  0.5656
   32TAL   C15721821   7.041   0.481   9.801  1.0884  0.6917 -0.0766
   32TAL   C15821822   7.015   0.420   9.658 -0.6103 -0.1900  0.2815
   32TAL   C15921823   6.873   0.407   9.609 -0.4174  0.1448  0.4892
   32TAL   C16021824   6.784   0.316   9.690  0.7446  0.3854  0.3138
   33HTM   C16121825   7.152   0.573  10.213  0.2023 -0.1365 -0.1467
   33HTM   C16221826   7.221   0.465  10.259  0.1912  0.0619  0.3425
   33HTM   C16321827   7.362   0.490  10.277  0.1152  0.2598  0.6566
   33HTM   C16421828   7.400   0.617  10.246  0.0681  0.2123  0.4069
   33HTM    S1721829   7.260   0.716  10.189  0.1171 -0.0885 -0.2494
   34TAL   C16521830   7.450   0.369  10.324 -0.6805  0.7237  0.0375
   34TAL   C16621831   7.396   0.227  10.294 -0.4350  0.0530 -0.3787
   34TAL   C16721832   7.380   0.179  10.148 -0.2145  0.4049 -0.1759
   34TAL   C16821833   7.513   0.173  10.069  0.1858 -0.1325  0.5422
   34TAL   C16921834   7.471   0.163   9.925 -0.0710  0.3274 -0.4589
   34TAL   C17021835   7.588   0.141   9.834  0.0913 -0.5340  0.0611
   35HTM   C17121836   7.533   0.681  10.245  0.0899 -0.5581 -0.4580
   35HTM   C17221837   7.553   0.814  10.219 -0.0234 -0.4764 -0.1388
   35HTM   C17321838   7.688   0.857  10.243 -0.1454 -0.3369  0.3024
   35HTM   C17421839   7.771   0.759  10.287 -0.1251 -0.3123  0.3195
   35HTM    S1821840   7.684   0.601  10.302  0.0511 -0.4644 -0.2244
   36TAL   C17521841   7.705   1.005  10.219 -0.8592 -0.5977 -0.4722
   36TAL   C17621842   7.833   1.087  10.258  0.4650  0.1852  0.2703
   36TAL   C17721843   7.838   1.221  10.187  0.2688 -0.4025  0.0703
   36TAL   C17821844   7.937   1.314  10.256  0.3390 -0.3813 -0.3887
   36TAL   C17921845   7.962   1.441  10.180  0.0076 -0.6328 -0.4091
   36TAL   C18021846   8.065   1.519  10.257  0.4716 -0.1758 -0.1295
   37HTM   C18121847   7.919   0.751  10.311 -0.0606  0.0664  0.1946
   37HTM   C18221848   8.022   0.722  10.227 -0.1431 -0.1656  0.1721
   37HTM   C18321849   8.150   0.718  10.291 -0.1345 -0.4211  0.1377
   37HTM   C18421850   8.146   0.743  10.425 -0.0451 -0.3838  0.1339
   37HTM    S1921851   7.977   0.775  10.481  0.0351 -0.0205  0.1740
   38TAL   C18521852   8.272   0.691  10.216 -0.0761  0.0324 -0.5732
   38TAL   C18621853   8.270   0.721  10.064  0.3070 -0.5726 -0.3057
   38TAL   C18721854   8.417   0.703  10.013  0.3991 -0.2708  0.2965
   38TAL   C18821855   8.437   0.729   9.864  0.6132 -0.1331  0.0815
   38TAL   C18921856   8.392   0.867   9.805  0.0783  0.0176 -0.1890
   38TAL   C19021857   8.436   0.897   9.668  0.0755  0.7615  0.2509
   39HTM   C19121858   8.250   0.748  10.529  0.3060  0.0615  0.1598
   39HTM   C19221859   8.380   0.788  10.523  0.4187 -0.3070  0.1514
   39HTM   C19321860   8.448   0.786  10.650  0.4783 -0.6803  0.1168
   39HTM   C19421861   8.369   0.746  10.753  0.4109 -0.5965  0.0989
   39HTM    S2021862   8.202   0.706  10.698  0.2662 -0.0351  0.1245
   40TAL   C19521863   8.600   0.796  10.660  0.3560 -0.0492 -0.7765
   40TAL   C19621864   8.695   0.768  10.548 -0.3422  0.0212  0.1569
   40TAL   C19721865   8.695   0.850  10.419 -0.1181 -0.6005  0.6967
   40TAL   C19821866   8.792   0.801  10.308 -0.1949  0.0913 -0.8885
   40TAL   C19921867   8.732   0.843  10.174 -0.4880 -0.3720  0.0655
   40TAL   C20021868   8.823   0.858  10.060  0.4023 -0.4866  0.8580
   41HTM   C20121869   8.396   0.721  10.889  0.0621 -0.1290 -0.0756
   41HTM   C20221870   8.477   0.785  10.978  0.3901 -0.3737 -0.1944
   41HTM   C20321871   8.479   0.725  11.109  0.3147 -0.3206 -0.1680
   41HTM   C20421872   8.401   0.614  11.120 -0.0702 -0.0354 -0.0291
   41HTM    S2121873   8.316   0.577  10.964 -0.3709  0.1899  0.0799
   42TAL   C20521874   8.568   0.781  11.215  0.0525 -0.7906 -0.6548
   42TAL   C20621875   8.548   0.930  11.262  0.0620 -0.1754  0.5022
   42TAL   C20721876   8.407   0.980  11.293  0.2521 -0.4706  0.4668
   42TAL   C20821877   8.328   0.896  11.394 -0.0742 -0.2885 -0.0040
   42TAL   C20921878   8.190   0.941  11.431  0.6267  0.6064  0.1013
   42TAL   C21021879   8.159   1.080  11.477 -0.3858 -0.4152 -0.1449
   43HTM   C21121880   8.385   0.516  11.222 -0.2413  0.2070  0.3243
   43HTM   C21221881   8.378   0.531  11.358 -0.6757  0.3387  0.2903
   43HTM   C21321882   8.355   0.407  11.428 -0.5145  0.3487  0.3608
   43HTM   C21421883   8.345   0.298  11.346  0.0431  0.2246  0.4487
   43HTM    S2221884   8.363   0.344  11.173  0.4098  0.0845  0.4491
   44TAL   C21521885   8.375   0.406  11.584 -0.0389 -0.8349  0.5535
   44TAL   C21621886   8.310   0.298  11.676 -0.1451  0.6370 -0.0521
   44TAL   C21721887   8.151   0.298  11.673  0.0906  0.7642  0.0232
   44TAL   C21821888   8.098   0.215  11.790  0.6083 -0.8720  0.1332
   44TAL   C21921889   7.972   0.133  11.759 -0.3888  0.3371 -0.4710
   44TAL   C22021890   7.908   0.085  11.880  0.3371 -0.3186  0.4151
   45HTM   C22121891   8.324   0.159  11.377 -0.1731 -0.1526 -0.3387
   45HTM   C22221892   8.203   0.100  11.358 -0.1721 -0.1357 -0.3945
   45HTM   C22321893   8.208  -0.044  11.361 -0.2232 -0.1330 -0.2139
   45HTM   C22421894   8.332  -0.095  11.383 -0.2631 -0.1483 -0.0204
   45HTM    S2321895   8.455   0.036  11.402 -0.2401 -0.1665 -0.0517
   46TAL   C22521896   8.078  -0.129  11.339 -0.5262 -0.5077  0.1240
   46TAL   C22621897   7.966  -0.060  11.262  1.0810 -0.3293  0.1102
   46TAL   C22721898   7.843  -0.143  11.268  0.2275  0.1466  0.7229
   46TAL   C22821899   7.735  -0.101  11.162 -1.0848  0.4004 -0.3532
   46TAL   C22921900   7.775  -0.156  11.023 -0.0531  0.2372 -0.1523
   46TAL   C23021901   7.678  -0.096  10.930  0.1337  0.0466  0.2940
   47HTM   C23121902   8.385  -0.230  11.398  0.1982  0.2556 -0.1487
   47HTM   C23221903   8.337  -0.349  11.350  0.0911  0.3777 -0.3474
   47HTM   C23321904   8.412  -0.463  11.394 -0.0687  0.2284 -0.4618
   47HTM   C23421905   8.518  -0.432  11.475 -0.0836 -0.0070 -0.3504
   47HTM    S2421906   8.531  -0.254  11.502  0.1046 -0.0595 -0.0904
   48TAL   C23521907   8.366  -0.608  11.369  0.3053 -0.0229 -0.0703
   48TAL   C23621908   8.422  -0.686  11.243  0.0529  0.2072 -0.7198
   48TAL   C23721909   8.380  -0.628  11.105 -0.1924  0.0683  0.4173
   48TAL   C23821910   8.419  -0.702  10.972  0.6942 -0.3134  0.3777
   48TAL   C23921911   8.381  -0.635  10.842  0.1512  0.0481 -0.2855
   48TAL   C24021912   8.422  -0.723  10.727  0.5519  0.1973 -0.1275
    1HTM     C121913   1.621   8.150   3.117 -0.2441 -0.4175  0.7993
    1HTM     C221914   1.671   8.239   3.207 -0.4590 -0.4916  0.9946
    1HTM     C321915   1.588   8.355   3.226 -0.3573 -0.3624  0.6614
    1HTM     C421916   1.474   8.354   3.150 -0.0648 -0.1911  0.2121
    1HTM     S121917   1.463   8.205   3.049  0.1061 -0.1782  0.1746
    2TAL     C521918   1.624   8.476   3.318 -0.4038 -0.0599  0.9092
    2TAL     C621919   1.762   8.487   3.382 -0.1594  0.3101 -0.3706
    2TAL     C721920   1.762   8.460   3.532 -0.0229  0.4990  0.2305
    2TAL     C821921   1.875   8.507   3.617 -0.7894 -0.3897 -0.4001
    2TAL     C921922   1.992   8.412   3.621 -0.2116  0.3956  0.0288
    2TAL    C1021923   2.098   8.466   3.717 -0.1708 -0.1528 -0.3177
    3HTM    C1121924   1.350   8.435   3.141 -0.1151 -0.0704  0.3381
    3HTM    C1221925   1.221   8.392   3.154 -0.1464  0.0424  0.3985
    3HTM    C1321926   1.123   8.496   3.137 -0.0715  0.0834  0.2126
    3HTM    C1421927   1.178   8.619   3.111  0.0173  0.0024  0.0103
    3HTM     S221928   1.358   8.611   3.107  0.0127 -0.1331  0.0393
    4TAL    C1521929   0.980   8.457   3.123 -0.2005 -0.2211 -0.2221
    4TAL    C1621930   0.903   8.479   3.249  0.0668 -0.5344 -0.2492
    4TAL    C1721931   0.756   8.494   3.214  0.2354 -0.1973  0.2022
    4TAL    C1821932   0.645   8.484   3.317  0.2482  0.7865  0.4858
    4TAL    C1921933   0.652   8.582   3.428 -0.6304 -0.6242 -0.4796
    4TAL    C2021934   0.534   8.558   3.527 -0.2973 -0.4381  0.5914
    5HTM    C2121935   1.120   8.744   3.076  0.1347 -0.1340  0.2736
    5HTM    C2221936   0.991   8.787   3.064  0.0123 -0.4015  0.6281
    5HTM    C2321937   0.979   8.927   3.033 -0.3646 -0.4234  0.6735
    5HTM    C2421938   1.099   8.991   3.021 -0.5296 -0.1726  0.3537
    5HTM     S321939   1.237   8.879   3.048 -0.2193  0.1131 -0.0325
    6TAL    C2521940   0.843   8.996   3.010 -0.1555 -0.3329  0.1891
    6TAL    C2621941   0.737   8.900   2.954  0.4311  0.5889 -0.2014
    6TAL    C2721942   0.592   8.943   2.936 -0.3372 -0.1527  0.3159
    6TAL    C2821943   0.494   8.968   3.054  0.0200 -0.0235 -0.5483
    6TAL    C2921944   0.492   8.876   3.170 -0.1005 -0.1661  0.1103
    6TAL    C3021945   0.431   8.740   3.156 -0.0351 -0.1734  0.0738
    7HTM    C3121946   1.136   9.128   3.022 -0.3710 -0.3057 -0.0733
    7HTM    C3221947   1.164   9.216   2.922 -1.1781 -0.0523 -0.0830
    7HTM    C3321948   1.187   9.350   2.966 -1.3623 -0.0526  0.0136
    7HTM    C3421949   1.177   9.366   3.101 -0.6957 -0.3064  0.0969
    7HTM     S421950   1.137   9.210   3.183  0.2235 -0.5665  0.0595
    8TAL    C3521951   1.208   9.462   2.865 -0.1396 -0.1196 -0.0230
    8TAL    C3621952   1.317   9.435   2.762  0.4929 -0.3681  0.0631
    8TAL    C3721953   1.328   9.532   2.643 -0.1340 -0.6935  0.3732
    8TAL    C3821954   1.211   9.521   2.551 -0.1918 -0.7517 -0.2724
    8TAL    C3921955   1.242   9.571   2.408  0.9988 -0.1655 -0.1287
    8TAL    C4021956   1.121   9.556   2.311  0.3126  1.3294 -0.2912
    9HTM    C4121957   1.189   9.483   3.187  0.2292  0.4302  0.0396
    9HTM    C4221958   1.101   9.587   3.201  0.2306  0.4176  0.1433
    9HTM    C4321959   1.122   9.665   3.320  0.2475  0.3130  0.2093
    9HTM    C4421960   1.226   9.621   3.397  0.2591  0.2458  0.1562
    9HTM     S521961   1.306   9.477   3.324  0.2493  0.3100  0.0172
   10TAL    C4521962   1.031   9.784   3.354  0.3005 -0.0952  0.1116
   10TAL    C4621963   1.066   9.907   3.280 -0.5875  0.3588 -0.0475
   10TAL    C4721964   1.000  10.035   3.327  0.4072 -1.1608 -0.3789
   10TAL    C4821965   1.035  10.091   3.465 -0.0111  1.1046 -0.4581
   10TAL    C4921966   1.186  10.119   3.497  0.1572 -0.2396 -0.1319
   10TAL    C5021967   1.231  10.265   3.465  0.2889 -0.3544  0.0149
   11HTM    C5121968   1.284   9.658   3.518 -0.0504 -0.4365 -0.0713
   11HTM    C5221969   1.273   9.771   3.593 -0.4463 -0.3960 -0.1864
   11HTM    C5321970   1.329   9.759   3.725 -0.5062 -0.1014 -0.1320
   11HTM    C5421971   1.383   9.636   3.750 -0.1560  0.0827  0.0247
   11HTM     S621972   1.366   9.526   3.608  0.2799 -0.1032  0.1162
   12TAL    C5521973   1.350   9.874   3.826  0.5856 -0.2158  0.2117
   12TAL    C5621974   1.402  10.001   3.773  0.1483 -0.0106  0.0622
   12TAL    C5721975   1.432  10.114   3.874 -0.5263 -0.6506  0.0313
   12TAL    C5821976   1.471  10.249   3.820  0.0014  0.0084  0.2077
   12TAL    C5921977   1.446  10.374   3.905  0.4421  0.2297  1.2263
   12TAL    C6021978   1.392  10.501   3.831  0.2695  0.5942 -0.3767
   13HTM    C6121979   1.447   9.575   3.863 -0.2396  0.4937 -0.3217
   13HTM    C6221980   1.550   9.485   3.854 -0.3791  0.3702 -0.7167
   13HTM    C6321981   1.601   9.443   3.982 -0.2456 -0.0464 -0.9065
   13HTM    C6421982   1.537   9.500   4.088 -0.0044 -0.2407 -0.6557
   13HTM     S721983   1.407   9.613   4.034  0.0736  0.0901 -0.1570
   14TAL    C6521984   1.703   9.334   4.012  0.3529 -0.5634 -0.1012
   14TAL    C6621985   1.735   9.232   3.906 -0.1488  0.2170 -0.1168
   14TAL    C6721986   1.616   9.168   3.829  0.0311 -0.1894 -0.5752
   14TAL    C6821987   1.650   9.056   3.731  0.0384  0.5900  0.0725
   14TAL    C6921988   1.727   8.944   3.798 -0.7454 -0.1933  0.4479
   14TAL    C7021989   1.788   8.839   3.713  0.2856 -0.0123  0.3794
   15HTM    C7121990   1.561   9.503   4.232 -0.1887 -0.2341  0.4857
   15HTM    C7221991   1.570   9.389   4.307 -0.6567 -0.1525  0.6702
   15HTM    C7321992   1.549   9.410   4.448 -0.5730  0.1615  0.6363
   15HTM    C7421993   1.524   9.540   4.481 -0.0410  0.3192  0.4264
   15HTM     S821994   1.525   9.647   4.335  0.3987  0.0817  0.2531
   16TAL    C7521995   1.548   9.296   4.548 -0.0369  0.6786 -0.1740
   16TAL    C7621996   1.684   9.216   4.557  0.4026 -0.1052 -0.3260
   16TAL    C7721997   1.695   9.078   4.630 -0.9249 -0.5933  0.1333
   16TAL    C7821998   1.590   8.981   4.579  0.3614  0.0269  0.3528
   16TAL    C7921999   1.581   8.856   4.668  0.8480 -0.4446 -0.0668
   16TAL    C8022000   1.509   8.736   4.599  0.0081 -0.4635  0.4603
   17HTM    C8122001   1.497   9.607   4.612 -0.1353  0.3057  0.1678
   17HTM    C8222002   1.447   9.733   4.629 -0.2754  0.2365  0.2716
   17HTM    C8322003   1.450   9.778   4.766 -0.0440  0.2423  0.2656
   17HTM    C8422004   1.501   9.686   4.853  0.2725  0.3160  0.1571
   17HTM     S922005   1.551   9.535   4.768  0.3032  0.3841  0.0530
   18TAL    C8522006   1.414   9.921   4.798  0.3465  0.4143  0.7133
   18TAL    C8622007   1.521  10.034   4.765 -0.0004 -0.0580 -0.5860
   18TAL    C8722008   1.484  10.164   4.830 -0.5081  0.3405  0.2499
   18TAL    C8822009   1.520  10.291   4.758  0.1092 -0.1209 -0.5502
   18TAL    C8922010   1.473  10.412   4.838 -0.2239  0.0368  0.0599
   18TAL    C9022011   1.494  10.541   4.768  0.1971 -0.1494  0.2859
   19HTM    C9122012   1.518   9.692   4.992 -0.5064  0.3516 -0.0569
   19HTM    C9222013   1.441   9.757   5.083 -0.2310  0.3612  0.1705
   19HTM    C9322014   1.478   9.730   5.220 -0.1196  0.0063  0.0708
   19HTM    C9422015   1.583   9.644   5.233 -0.3101 -0.2739 -0.2321
   19HTM    S1022016   1.644   9.591   5.072 -0.6474 -0.1099 -0.4168
   20TAL    C9522017   1.400   9.795   5.333  0.2464 -0.2468 -0.9246
   20TAL    C9622018   1.268   9.739   5.396 -0.0200 -0.5837  0.0222
   20TAL    C9722019   1.153   9.723   5.297  0.3299 -0.0330  0.2311
   20TAL    C9822020   1.137   9.610   5.199 -0.8265 -0.2555  0.9505
   20TAL    C9922021   1.112   9.475   5.261 -0.2124  0.0074  0.4929
   20TAL   C10022022   1.138   9.358   5.167 -0.0019  0.1910 -0.0761
   21HTM   C10122023   1.669   9.603   5.339  0.2034  0.2000 -0.0093
   21HTM   C10222024   1.652   9.625   5.473 -0.0119 -0.0160 -0.0012
   21HTM   C10322025   1.768   9.594   5.552 -0.1340 -0.1282  0.1347
   21HTM   C10422026   1.874   9.549   5.479 -0.0119  0.0023  0.2299
   21HTM    S1122027   1.835   9.541   5.303  0.2691  0.2792  0.1553
   22TAL   C10522028   1.771   9.607   5.704 -0.5229  0.2140  0.1842
   22TAL   C10622029   1.643   9.643   5.786  0.3766 -0.0208  0.4225
   22TAL   C10722030   1.670   9.650   5.938  0.5349  0.0543  0.3758
   22TAL   C10822031   1.561   9.723   6.020 -0.0247  0.2335  0.5687
   22TAL   C10922032   1.594   9.725   6.164 -0.7338  0.1246 -0.4886
   22TAL   C11022033   1.494   9.818   6.244  0.7753  0.4365 -0.7208
   23HTM   C11122034   2.015   9.516   5.498 -0.3412  0.2311 -0.3347
   23HTM   C11222035   2.069   9.444   5.601 -0.6342  0.0211 -0.3262
   23HTM   C11322036   2.207   9.411   5.581 -0.6628 -0.2099 -0.1411
   23HTM   C11422037   2.259   9.458   5.464 -0.3916 -0.1759 -0.0090
   23HTM    S1222038   2.136   9.548   5.368 -0.0766  0.1529 -0.1083
   24TAL   C11522039   2.286   9.329   5.684  0.1719  0.4134  0.1304
   24TAL   C11622040   2.332   9.203   5.625  0.4242  0.2026  0.3457
   24TAL   C11722041   2.233   9.106   5.564 -0.4626  0.0663  0.3671
   24TAL   C11822042   2.289   8.975   5.505  0.0345 -0.2002 -0.2093
   24TAL   C11922043   2.382   8.996   5.387  0.3926  0.1778 -0.2895
   24TAL   C12022044   2.425   8.870   5.322 -0.1150 -0.6009  0.4876
   25HTM   C12122045   2.386   9.456   5.404  0.5478 -0.3782  0.0535
   25HTM   C12222046   2.445   9.369   5.316  0.7658 -0.1988  0.0205
   25HTM   C12322047   2.580   9.405   5.281  0.7522  0.0349  0.2027
   25HTM   C12422048   2.624   9.519   5.340  0.5238  0.0338  0.3742
   25HTM    S1322049   2.497   9.591   5.447  0.3064 -0.2650  0.3185
   26TAL   C12522050   2.659   9.311   5.189  0.8798  0.0169 -0.4676
   26TAL   C12622051   2.592   9.188   5.123  0.0306 -0.5769 -0.1023
   26TAL   C12722052   2.492   9.192   5.000 -0.3117 -0.5504 -0.3378
   26TAL   C12822053   2.471   9.059   4.923  0.4387 -0.0044 -0.2891
   26TAL   C12922054   2.387   9.076   4.799 -0.4159  0.4824 -0.2761
   26TAL   C13022055   2.351   8.937   4.761  0.3825  0.4704 -0.3559
   27HTM   C13122056   2.750   9.584   5.323  0.0143  0.0370 -0.2867
   27HTM   C13222057   2.771   9.716   5.350 -0.0513  0.1431 -0.7565
   27HTM   C13322058   2.904   9.761   5.318 -0.0199  0.0536 -0.7520
   27HTM   C13422059   2.984   9.663   5.267  0.0698 -0.1208 -0.2784
   27HTM    S1422060   2.897   9.505   5.256  0.1217 -0.1860  0.2022
   28TAL   C13522061   2.941   9.906   5.336 -0.0678 -0.0517 -0.2610
   28TAL   C13622062   2.822  10.006   5.366  0.5144 -0.5891  0.7646
   28TAL   C13722063   2.854  10.154   5.355 -0.7976 -0.0171  0.3106
   28TAL   C13822064   2.733  10.244   5.339 -0.5344  0.3092 -0.3926
   28TAL   C13922065   2.634  10.252   5.454 -0.0440  0.0929  0.3418
   28TAL   C14022066   2.685  10.288   5.594 -0.9699  0.3960  0.5330
   29HTM   C14122067   3.124   9.666   5.217 -0.3472  0.5076  0.0198
   29HTM   C14222068   3.175   9.580   5.124 -0.9425  0.5544 -0.3567
   29HTM   C14322069   3.316   9.598   5.101 -0.9389  0.0679 -0.7074
   29HTM   C14422070   3.373   9.697   5.176 -0.3409 -0.3498 -0.5981
   29HTM    S1522071   3.251   9.776   5.283  0.2688 -0.1596 -0.0400
   30TAL   C14522072   3.376   9.512   4.989  0.7185  0.0283 -0.3554
   30TAL   C14622073   3.410   9.366   5.011  0.0314  0.4195 -0.4030
   30TAL   C14722074   3.452   9.288   4.888 -0.2765  0.2999  0.2234
   30TAL   C14822075   3.457   9.139   4.910 -0.2516  1.5683 -0.4586
   30TAL   C14922076   3.477   9.055   4.780 -0.4265  0.5433 -0.1476
   30TAL   C15022077   3.467   8.900   4.816 -0.0964 -0.5352 -0.3940
   31HTM   C15122078   3.512   9.737   5.176  0.0221 -0.1776  0.4393
   31HTM   C15222079   3.565   9.792   5.289  0.3448 -0.1924  0.2952
   31HTM   C15322080   3.706   9.821   5.279  0.3053 -0.1426 -0.1214
   31HTM   C15422081   3.760   9.788   5.158 -0.0474 -0.0897 -0.2947
   31HTM    S1622082   3.636   9.717   5.047 -0.3597 -0.0988  0.0570
   32TAL   C15522083   3.788   9.868   5.390  0.2333 -0.4022 -0.4671
   32TAL   C15622084   3.728   9.889   5.530  0.2845 -0.1623 -0.3696
   32TAL   C15722085   3.682  10.032   5.577 -0.0147  0.0953 -0.0438
   32TAL   C15822086   3.569  10.106   5.512  0.0728  0.0201 -0.3597
   32TAL   C15922087   3.431  10.044   5.520 -0.3226  0.2414 -0.6593
   32TAL   C16022088   3.332  10.134   5.450 -0.4863 -1.0473 -0.2658
   33HTM   C16122089   3.893   9.786   5.099 -0.2431  0.0264  0.3445
   33HTM   C16222090   3.956   9.685   5.031 -0.5786  0.0773 -0.0429
   33HTM   C16322091   4.091   9.717   4.992 -0.6745 -0.0007 -0.4427
   33HTM   C16422092   4.131   9.841   5.030 -0.4118 -0.1110 -0.3602
   33HTM    S1722093   4.001   9.929   5.119 -0.0202 -0.1251  0.2333
   34TAL   C16522094   4.169   9.627   4.900  0.1104 -0.1102  0.3172
   34TAL   C16622095   4.153   9.480   4.932 -0.0966  0.3069  0.4330
   34TAL   C16722096   4.211   9.394   4.819 -0.0813  0.0036  0.5896
   34TAL   C16822097   4.240   9.236   4.844 -0.5612 -0.0967 -0.1448
   34TAL   C16922098   4.262   9.165   4.717  0.4617 -0.2707 -0.3746
   34TAL   C17022099   4.283   9.018   4.743  0.1230  0.0970 -0.2451
   35HTM   C17122100   4.268   9.903   5.021  0.2251  0.3680  0.0394
   35HTM   C17222101   4.294  10.037   5.021  0.4764  0.3234  0.4642
   35HTM   C17322102   4.434  10.070   5.028  0.5338  0.0390  0.6428
   35HTM   C17422103   4.515   9.961   5.034  0.3267 -0.1334  0.3540
   35HTM    S1822104   4.421   9.807   5.031  0.0403  0.0517 -0.1698
   36TAL   C17522105   4.481  10.219   5.029 -0.1410  0.8445  0.1945
   36TAL   C17622106   4.374  10.333   5.022 -0.1340  0.3716  0.3979
   36TAL   C17722107   4.286  10.339   4.903  0.6691 -0.2993 -0.6320
   36TAL   C17822108   4.203  10.468   4.880 -0.0654 -0.3729  0.4079
   36TAL   C17922109   4.301  10.585   4.851  0.9662 -0.6113 -0.4316
   36TAL   C18022110   4.222  10.721   4.832  0.1417  0.0893  0.0706
   37HTM   C18122111   4.662   9.950   5.059  0.0432  0.0145  0.1658
   37HTM   C18222112   4.721   9.840   5.113 -0.1175  0.2179  0.7546
   37HTM   C18322113   4.863   9.852   5.129 -0.1285  0.1774  0.8931
   37HTM   C18422114   4.913   9.971   5.086  0.0230 -0.0570  0.4098
   37HTM    S1922115   4.783  10.078   5.022  0.1935 -0.2461 -0.2626
   38TAL   C18522116   4.939   9.756   5.219 -0.4442 -0.0758  0.6320
   38TAL   C18622117   4.977   9.627   5.144 -0.0410 -0.4908  0.1334
   38TAL   C18722118   5.037   9.525   5.236 -0.1316 -0.1220  0.4849
   38TAL   C18822119   5.172   9.486   5.168  0.8447 -0.0978 -0.4261
   38TAL   C18922120   5.283   9.417   5.251 -0.0631  0.0611  0.1155
   38TAL   C19022121   5.262   9.274   5.271 -0.3948  0.1908 -0.2713
   39HTM   C19122122   5.049  10.019   5.076  0.1254  0.0759 -0.1197
   39HTM   C19222123   5.093  10.148   5.075  0.3414  0.0034 -0.2220
   39HTM   C19322124   5.228  10.164   5.028  0.3891 -0.2667 -0.1762
   39HTM   C19422125   5.287  10.046   4.992  0.2099 -0.4004 -0.0384
   39HTM    S2022126   5.176   9.906   5.016 -0.0355 -0.1937  0.0442
   40TAL   C19522127   5.281  10.307   5.019 -0.5745 -0.8537 -0.3181
   40TAL   C19622128   5.431  10.345   5.003  1.0403  0.7072 -0.4829
   40TAL   C19722129   5.528  10.283   5.097  0.0518 -0.3668  0.4307
   40TAL   C19822130   5.672  10.328   5.077 -0.5341 -0.1928  0.0785
   40TAL   C19922131   5.757  10.226   5.147  0.1453  0.3485  0.4404
   40TAL   C20022132   5.905  10.259   5.170 -0.1249 -0.2654 -0.1159
   41HTM   C20122133   5.413  10.015   4.928 -0.0744  0.1801 -0.0119
   41HTM   C20222134   5.442  10.039   4.797 -0.1802  0.1347 -0.0439
   41HTM   C20322135   5.576  10.001   4.759 -0.2356  0.0501 -0.1574
   41HTM   C20422136   5.649   9.949   4.862 -0.1715  0.0310 -0.2123
   41HTM    S2122137   5.554   9.944   5.015 -0.0357  0.1191 -0.1240
   42TAL   C20522138   5.619  10.046   4.621  0.0793  0.1551 -0.0289
   42TAL   C20622139   5.675  10.186   4.592  0.5819  0.1400  0.8780
   42TAL   C20722140   5.759  10.265   4.690 -0.3407  0.4697 -0.1361
   42TAL   C20822141   5.901  10.216   4.722  0.2391  0.3838 -0.1311
   42TAL   C20922142   5.976  10.303   4.823 -0.4063  0.0500 -0.4244
   42TAL   C21022143   6.120  10.261   4.854 -0.2926 -0.0529 -0.1199
   43HTM   C21122144   5.788   9.901   4.868 -0.3245  0.4495 -0.4184
   43HTM   C21222145   5.874   9.906   4.974 -0.3490  0.8378 -0.4151
   43HTM   C21322146   6.011   9.881   4.938 -0.3157  0.8790 -0.3171
   43HTM   C21422147   6.029   9.856   4.805 -0.2660  0.5223 -0.2457
   43HTM    S2222148   5.874   9.863   4.714 -0.2571  0.1032 -0.2967
   44TAL   C21522149   6.117   9.894   5.049  0.5861  0.0676 -0.0240
   44TAL   C21622150   6.144   9.765   5.128  0.1156  0.0175  1.1481
   44TAL   C21722151   6.267   9.676   5.098 -0.1003 -0.3181 -0.3733
   44TAL   C21822152   6.399   9.744   5.141  0.4539 -0.2716  0.4323
   44TAL   C21922153   6.521   9.655   5.126 -0.4070 -0.6352 -0.0900
   44TAL   C22022154   6.651   9.723   5.150 -0.4819 -0.3274  0.4140
   45HTM   C22122155   6.145   9.829   4.720 -0.2865  0.5857 -0.0658
   45HTM   C22222156   6.156   9.824   4.585 -0.4456  0.7779 -0.0877
   45HTM   C22322157   6.291   9.800   4.539 -0.6070  0.1816 -0.2599
   45HTM   C22422158   6.382   9.787   4.640 -0.5711 -0.4653 -0.3691
   45HTM    S2322159   6.304   9.805   4.802 -0.3289 -0.3707 -0.2620
   46TAL   C22522160   6.313   9.778   4.391  0.0460 -0.3057 -0.2195
   46TAL   C22622161   6.442   9.829   4.330 -0.3026 -0.4898  0.4969
   46TAL   C22722162   6.433   9.820   4.180  0.2932 -0.5301  0.1012
   46TAL   C22822163   6.555   9.854   4.099 -0.4229 -0.8006 -0.0920
   46TAL   C22922164   6.531   9.844   3.952  0.3435  0.4366  0.1327
   46TAL   C23022165   6.612   9.944   3.872  0.1450  0.3192 -0.3556
   47HTM   C23122166   6.522   9.771   4.647  0.0981  0.2089  0.2088
   47HTM   C23222167   6.615   9.854   4.703  0.3138  0.1120 -0.0031
   47HTM   C23322168   6.751   9.817   4.672  0.2134 -0.1681 -0.1225
   47HTM   C23422169   6.762   9.707   4.593 -0.0786 -0.2847 -0.0017
   47HTM    S2422170   6.600   9.639   4.551 -0.2509 -0.0480  0.2746
   48TAL   C23522171   6.863   9.905   4.722  0.4296  0.2096 -0.1067
   48TAL   C23622172   7.000   9.885   4.671 -0.3311 -0.6066 -0.0070
   48TAL   C23722173   7.115   9.955   4.743  0.6599  0.7026 -0.0108
   48TAL   C23822174   7.243   9.948   4.670 -0.2104 -0.2323  0.4686
   48TAL   C23922175   7.337  10.048   4.735 -1.1476  0.2041 -0.0945
   48TAL   C24022176   7.474  10.048   4.673 -1.0588  0.6476 -0.3107
    1HTM     C122177   5.882   4.857   7.057  0.0644 -0.2982  0.0998
    1HTM     C222178   5.970   4.759   7.095  0.1371 -0.4756 -0.5131
    1HTM     C322179   5.916   4.626   7.085  0.0839 -0.4237 -0.9296
    1HTM     C422180   5.787   4.622   7.039 -0.0288 -0.2061 -0.6340
    1HTM     S122181   5.724   4.788   7.005 -0.0774 -0.0492  0.1992
    2TAL     C522182   5.993   4.501   7.126 -0.7120 -0.4699  0.2585
    2TAL     C622183   6.144   4.525   7.156  0.0219 -0.4283 -0.0152
    2TAL     C722184   6.231   4.400   7.181 -0.5087  0.5500 -0.2766
    2TAL     C822185   6.386   4.432   7.175 -0.0383 -0.4576  0.5679
    2TAL     C922186   6.438   4.470   7.312  0.3829  0.0476 -0.0750
    2TAL    C1022187   6.589   4.485   7.317  0.1293 -0.0783 -0.3643
    3HTM    C1122188   5.695   4.513   7.008  0.4483  0.2216  0.3246
    3HTM    C1222189   5.607   4.514   6.904  0.8535  0.5093 -0.0193
    3HTM    C1322190   5.537   4.389   6.886  0.5147  0.7362 -0.2863
    3HTM    C1422191   5.572   4.293   6.976 -0.1483  0.6220 -0.1465
    3HTM     S222192   5.696   4.353   7.092 -0.3984  0.2156  0.3370
    4TAL    C1522193   5.444   4.366   6.771 -0.0785  0.2087 -0.3425
    4TAL    C1622194   5.479   4.392   6.624 -0.7337  0.1861  0.4447
    4TAL    C1722195   5.602   4.324   6.559 -0.0840 -0.1862  0.0715
    4TAL    C1822196   5.737   4.391   6.600  0.4911  0.9098  0.5454
    4TAL    C1922197   5.858   4.329   6.533  0.5271 -0.6824 -0.5386
    4TAL    C2022198   5.977   4.360   6.613 -0.0360  0.3750 -0.0031
    5HTM    C2122199   5.527   4.153   6.989 -0.1310 -0.1261 -0.3376
    5HTM    C2222200   5.398   4.110   6.986 -0.1230 -0.1454 -0.3955
    5HTM    C2322201   5.383   3.969   7.014 -0.1271 -0.1192 -0.2651
    5HTM    C2422202   5.501   3.906   7.038 -0.1380 -0.0799 -0.1078
    5HTM     S322203   5.641   4.019   7.028 -0.1441 -0.0727 -0.1123
    6TAL    C2522204   5.240   3.926   7.037 -1.3191  0.0033  0.2076
    6TAL    C2622205   5.136   3.946   6.931  0.6418  0.0680  0.0322
    6TAL    C2722206   4.996   3.905   6.965  0.7093  0.0088 -0.0059
    6TAL    C2822207   4.898   3.905   6.845  0.1063 -0.9672 -0.6312
    6TAL    C2922208   4.758   3.859   6.896  0.0890  0.5716  0.2088
    6TAL    C3022209   4.662   3.796   6.797  0.3627 -0.0152  0.4790
    7HTM    C3122210   5.526   3.765   7.058  0.1296 -0.0831 -0.3176
    7HTM    C3222211   5.647   3.706   7.035 -0.0882 -0.4580 -0.5178
    7HTM    C3322212   5.652   3.567   7.070 -0.4051 -0.4244 -0.3412
    7HTM    C3422213   5.534   3.519   7.120 -0.4280 -0.0238 -0.0065
    7HTM     S422214   5.408   3.648   7.126 -0.0491  0.3448  0.1121
    8TAL    C3522215   5.793   3.513   7.049  0.0458 -0.2024 -0.2005
    8TAL    C3622216   5.841   3.519   6.902  0.5018  0.2510 -0.7740
    8TAL    C3722217   5.979   3.474   6.873  0.5504 -0.0383 -0.3650
    8TAL    C3822218   6.066   3.597   6.885  0.4562  0.7030 -0.3808
    8TAL    C3922219   6.217   3.555   6.916 -0.0106  0.4533 -0.3145
    8TAL    C4022220   6.303   3.662   6.976 -0.1450 -0.0929 -0.3575
    9HTM    C4122221   5.505   3.387   7.169  0.0070 -0.0659  0.0677
    9HTM    C4222222   5.588   3.279   7.177  0.0296 -0.0345  0.2692
    9HTM    C4322223   5.526   3.163   7.237 -0.0703 -0.0557  0.1256
    9HTM    C4422224   5.397   3.183   7.275 -0.1699 -0.1032 -0.1851
    9HTM     S522225   5.342   3.351   7.238 -0.1441 -0.1252 -0.3221
   10TAL    C4522226   5.594   3.030   7.257  0.0073  0.1484 -0.4216
   10TAL    C4622227   5.741   3.034   7.296  0.1004  0.0984 -0.0046
   10TAL    C4722228   5.801   2.899   7.300  0.4026 -0.3513  0.7316
   10TAL    C4822229   5.945   2.893   7.349 -0.6664 -0.4176 -1.0144
   10TAL    C4922230   6.011   2.761   7.372 -0.1573  0.0468 -0.4962
   10TAL    C5022231   6.001   2.658   7.254 -0.4637 -0.7308 -0.2471
   11HTM    C5122232   5.314   3.089   7.352  0.1872 -0.1935 -0.3300
   11HTM    C5222233   5.347   3.020   7.464  0.0505 -0.1687 -0.2739
   11HTM    C5322234   5.255   2.913   7.496 -0.1945  0.0786 -0.1519
   11HTM    C5422235   5.152   2.902   7.407 -0.2447  0.2422 -0.1144
   11HTM     S622236   5.163   3.026   7.276  0.0163  0.0958 -0.2317
   12TAL    C5522237   5.284   2.820   7.618  0.3060 -1.1132 -0.0975
   12TAL    C5622238   5.362   2.689   7.584 -0.2380  0.3871  0.0124
   12TAL    C5722239   5.499   2.704   7.508  0.0743 -0.4292 -0.0632
   12TAL    C5822240   5.587   2.583   7.515 -0.4773  0.1090  0.7906
   12TAL    C5922241   5.647   2.555   7.650 -0.7705  0.0440 -0.2464
   12TAL    C6022242   5.703   2.424   7.687 -0.3583 -0.8602 -0.1595
   13HTM    C6122243   5.043   2.807   7.398 -0.1733 -0.5073  0.0582
   13HTM    C6222244   5.043   2.676   7.439 -0.8125 -0.4456  0.2720
   13HTM    C6322245   4.920   2.607   7.413 -1.1566  0.1191  0.3929
   13HTM    C6422246   4.825   2.685   7.353 -0.7798  0.4882  0.2715
   13HTM     S722247   4.885   2.852   7.324  0.0450  0.1484 -0.0075
   14TAL    C6522248   4.896   2.463   7.455 -0.1986  0.2305  0.0205
   14TAL    C6622249   5.002   2.356   7.419 -0.1976 -0.1298 -0.5458
   14TAL    C6722250   4.943   2.215   7.445 -0.4525 -0.9852  0.2389
   14TAL    C6822251   5.045   2.098   7.451  0.3845  0.4404 -0.3280
   14TAL    C6922252   4.996   1.991   7.544 -0.4945 -0.0779 -0.5123
   14TAL    C7022253   5.089   1.876   7.544  0.4093  0.1638 -0.4526
   15HTM    C7122254   4.685   2.656   7.310 -0.0374  0.2477  0.1978
   15HTM    C7222255   4.627   2.534   7.300  0.0613  0.1811  0.4318
   15HTM    C7322256   4.488   2.538   7.260  0.0288 -0.0012  0.5209
   15HTM    C7422257   4.441   2.665   7.240 -0.0940 -0.0736  0.3549
   15HTM     S822258   4.569   2.788   7.270 -0.1795  0.0840  0.0708
   16TAL    C7522259   4.407   2.415   7.252  0.3597  0.6547  0.3522
   16TAL    C7622260   4.450   2.278   7.306  0.0980  0.6287  0.9281
   16TAL    C7722261   4.571   2.206   7.252 -0.3586  0.3437 -0.1160
   16TAL    C7822262   4.594   2.062   7.310 -0.0659 -0.4768 -0.0957
   16TAL    C7922263   4.669   1.975   7.213 -0.4963 -0.1101 -0.3686
   16TAL    C8022264   4.730   1.849   7.271 -0.4370 -0.2583 -0.0726
   17HTM    C8122265   4.312   2.716   7.195 -0.4530 -0.0595  0.5156
   17HTM    C8222266   4.200   2.646   7.161 -0.6523 -0.0484  1.1396
   17HTM    C8322267   4.094   2.729   7.109 -0.6237 -0.1415  0.9332
   17HTM    C8422268   4.126   2.861   7.103 -0.4026 -0.2235  0.1521
   17HTM     S922269   4.293   2.893   7.163 -0.2124 -0.1893 -0.3882
   18TAL    C8522270   3.976   2.659   7.049 -0.0418  0.1234 -0.0643
   18TAL    C8622271   3.848   2.664   7.133 -0.5889 -0.4899  0.1153
   18TAL    C8722272   3.718   2.607   7.079 -0.2833  0.4487 -0.1894
   18TAL    C8822273   3.670   2.646   6.940 -0.0469  0.1843 -0.3027
   18TAL    C8922274   3.536   2.600   6.895 -0.1415 -0.0500 -0.2420
   18TAL    C9022275   3.502   2.666   6.760  0.2903  0.1495  0.3956
   19HTM    C9122276   4.050   2.982   7.063  0.3402  0.1652 -0.2745
   19HTM    C9222277   3.926   2.992   7.007  0.4992 -0.0255 -0.6657
   19HTM    C9322278   3.884   3.127   6.981  0.2161 -0.0679 -0.4389
   19HTM    C9422279   3.977   3.221   7.017 -0.1590  0.0905  0.1246
   19HTM    S1022280   4.124   3.144   7.087 -0.1843  0.3072  0.4154
   20TAL    C9522281   3.746   3.167   6.930 -0.2610  0.0460  0.6841
   20TAL    C9622282   3.686   3.072   6.818 -0.2422  0.0625 -0.2117
   20TAL    C9722283   3.554   3.119   6.753 -0.1083  0.0604  0.0301
   20TAL    C9822284   3.530   3.257   6.694 -0.7241 -0.5448 -0.3704
   20TAL    C9922285   3.601   3.277   6.564  0.3959 -0.6928 -0.1313
   20TAL   C10022286   3.549   3.395   6.479  0.6003  0.0319  0.2150
   21HTM   C10122287   3.990   3.364   7.008 -0.0786  0.0989  0.0871
   21HTM   C10222288   3.913   3.455   6.943 -0.3396  0.1185  0.4218
   21HTM   C10322289   3.958   3.591   6.957 -0.5237  0.1603  0.6235
   21HTM   C10422290   4.071   3.604   7.033 -0.4024  0.1727  0.4425
   21HTM    S1122291   4.128   3.444   7.093 -0.0443  0.1323 -0.0002
   22TAL   C10522292   3.882   3.701   6.881 -0.4686  0.5032  0.0803
   22TAL   C10622293   3.754   3.664   6.803 -0.1388  0.2358 -0.6182
   22TAL   C10722294   3.708   3.771   6.698 -0.4858 -0.4909  0.1170
   22TAL   C10822295   3.805   3.769   6.573 -0.2842 -0.0631  0.0571
   22TAL   C10922296   3.783   3.647   6.480  0.0469  0.4584  0.4466
   22TAL   C11022297   3.863   3.664   6.349 -0.2868  0.3935  0.2688
   23HTM   C11122298   4.154   3.722   7.059  0.1716 -0.1016 -0.6294
   23HTM   C11222299   4.281   3.723   7.107  0.2451 -0.1458 -0.8216
   23HTM   C11322300   4.339   3.855   7.117  0.2396 -0.1502 -0.7341
   23HTM   C11422301   4.255   3.955   7.077  0.1622 -0.1095 -0.4751
   23HTM    S1222302   4.096   3.889   7.022  0.0897 -0.0619 -0.3206
   24TAL   C11522303   4.488   3.866   7.168  0.5722 -0.4609 -0.4919
   24TAL   C11622304   4.557   3.750   7.244  0.4924 -0.1557  0.3773
   24TAL   C11722305   4.704   3.754   7.258 -0.4537  0.2757  0.1840
   24TAL   C11822306   4.783   3.872   7.320 -0.1471 -0.3153  0.1369
   24TAL   C11922307   4.715   3.947   7.436  0.0973 -0.5292  0.0810
   24TAL   C12022308   4.799   4.059   7.483 -0.3904 -0.3163 -0.0396
   25HTM   C12122309   4.280   4.097   7.058  0.1827 -0.1738 -0.5661
   25HTM   C12222310   4.224   4.183   6.968  0.0925 -0.2928 -0.6242
   25HTM   C12322311   4.274   4.318   6.979 -0.0565 -0.2315 -0.7076
   25HTM   C12422312   4.368   4.334   7.076 -0.0797 -0.0659 -0.7138
   25HTM    S1322313   4.401   4.180   7.164  0.0858  0.0262 -0.6134
   26TAL   C12522314   4.226   4.442   6.897  0.4318  0.1401 -0.4778
   26TAL   C12622315   4.169   4.416   6.757 -0.2496  0.0829 -0.4413
   26TAL   C12722316   4.019   4.376   6.757 -0.4872 -0.3315 -0.0090
   26TAL   C12822317   3.952   4.339   6.628 -0.4492 -0.5530  0.0899
   26TAL   C12922318   4.001   4.210   6.571 -0.5453  0.1041 -0.0253
   26TAL   C13022319   3.974   4.080   6.646  0.0253  0.0148  0.5141
   27HTM   C13122320   4.434   4.448   7.131  0.0254 -0.4697  0.0848
   27HTM   C13222321   4.486   4.551   7.059  0.4392 -0.7958 -0.0885
   27HTM   C13322322   4.547   4.654   7.140  0.5403 -0.7365 -0.2391
   27HTM   C13422323   4.541   4.628   7.274  0.2032 -0.3651 -0.1805
   27HTM    S1422324   4.458   4.472   7.308 -0.2713 -0.0596  0.0713
   28TAL   C13522325   4.602   4.777   7.069  0.3575  0.0677  0.7355
   28TAL   C13622326   4.588   4.806   6.922  0.4081  0.3047  0.3961
   28TAL   C13722327   4.638   4.696   6.829 -0.9225 -0.2086 -0.4840
   28TAL   C13822328   4.702   4.757   6.703  0.1102  0.2507 -0.2707
   28TAL   C13922329   4.757   4.639   6.632 -0.0148  0.9309 -0.0243
   28TAL   C14022330   4.808   4.684   6.493 -0.1225 -0.1430 -0.0449
   29HTM   C14122331   4.585   4.709   7.387  0.4500  0.0771  0.0514
   29HTM   C14222332   4.609   4.665   7.514  0.6344  0.2360  0.0720
   29HTM   C14322333   4.655   4.768   7.603  0.3955  0.4287 -0.0265
   29HTM   C14422334   4.666   4.891   7.544  0.0289  0.4165 -0.1221
   29HTM    S1522335   4.619   4.885   7.370 -0.0435  0.1586 -0.0950
   30TAL   C14522336   4.662   4.743   7.755  0.2025  0.2412  0.2598
   30TAL   C14622337   4.546   4.795   7.845  0.7356  0.1531  0.3851
   30TAL   C14722338   4.408   4.732   7.825 -0.3394  0.1340 -0.5110
   30TAL   C14822339   4.395   4.584   7.870  0.5165 -0.8436  0.1310
   30TAL   C14922340   4.270   4.514   7.845  0.1872 -0.2225  0.1185
   30TAL   C15022341   4.198   4.529   7.707 -0.4549 -0.2223 -0.1709
   31HTM   C15122342   4.705   5.024   7.582  0.2988  0.0144 -0.0233
   31HTM   C15222343   4.648   5.119   7.662  0.5205  0.0145  0.1357
   31HTM   C15322344   4.717   5.245   7.661  0.7203 -0.0939  0.2186
   31HTM   C15422345   4.827   5.246   7.580  0.6512 -0.1771  0.1228
   31HTM    S1622346   4.852   5.087   7.499  0.3262 -0.1241 -0.0813
   32TAL   C15522347   4.671   5.365   7.739  0.4503  0.3405  0.1317
   32TAL   C15622348   4.550   5.447   7.703 -0.0104  0.0138  0.5144
   32TAL   C15722349   4.559   5.512   7.564 -0.5562 -0.1744 -0.7941
   32TAL   C15822350   4.659   5.624   7.537 -0.2866  0.3272  0.2198
   32TAL   C15922351   4.641   5.754   7.615  0.9517  0.6021  0.0989
   32TAL   C16022352   4.522   5.838   7.555  0.2470  0.1093 -0.2967
   33HTM   C16122353   4.917   5.361   7.542 -0.1181 -0.0063 -0.1993
   33HTM   C16222354   4.960   5.391   7.416  0.1500 -0.0730 -0.1228
   33HTM   C16322355   5.038   5.512   7.409  0.1245 -0.0510 -0.0279
   33HTM   C16422356   5.055   5.574   7.530 -0.1634  0.0327 -0.0317
   33HTM    S1722357   4.972   5.484   7.662 -0.4267  0.0906 -0.1567
   34TAL   C16522358   5.089   5.564   7.271  0.2471 -0.0168 -0.0608
   34TAL   C16622359   5.183   5.465   7.198 -0.4332  0.2601 -0.0591
   34TAL   C16722360   5.325   5.472   7.266 -0.4276  0.1069  0.2066
   34TAL   C16822361   5.429   5.376   7.203 -0.3134  0.4970 -0.4748
   34TAL   C16922362   5.550   5.370   7.298  0.0163  0.4225 -0.2863
   34TAL   C17022363   5.654   5.261   7.273 -0.2337 -1.2031  0.2252
   35HTM   C17122364   5.125   5.706   7.554  0.0954  0.0440  0.1404
   35HTM   C17222365   5.230   5.755   7.482  0.0131  0.1948  0.1228
   35HTM   C17322366   5.275   5.885   7.525 -0.2739  0.3319  0.0088
   35HTM   C17422367   5.204   5.935   7.630 -0.4102  0.2857 -0.0606
   35HTM    S1822368   5.075   5.821   7.683 -0.1854  0.0639  0.0135
   36TAL   C17522369   5.386   5.962   7.455 -0.1087 -0.1197  0.0516
   36TAL   C17622370   5.522   5.933   7.518 -0.2070 -0.3817  0.0702
   36TAL   C17722371   5.623   6.049   7.492  0.5350  0.2201 -0.0250
   36TAL   C17822372   5.595   6.187   7.554 -0.6528  0.1064 -0.1768
   36TAL   C17922373   5.674   6.209   7.682 -0.7126 -0.0995  0.0612
   36TAL   C18022374   5.660   6.110   7.799  0.2341 -0.0105 -0.3509
   37HTM   C18122375   5.229   6.054   7.710  0.5536 -0.0521  0.3809
   37HTM   C18222376   5.296   6.059   7.829  0.8891  0.3350  0.1810
   37HTM   C18322377   5.326   6.192   7.873  0.6714  0.4954 -0.1509
   37HTM   C18422378   5.283   6.290   7.788  0.1702  0.2311 -0.2040
   37HTM    S1922379   5.200   6.219   7.644 -0.0674 -0.2452  0.1636
   38TAL   C18522380   5.409   6.214   7.997 -0.9173  0.1964  0.3375
   38TAL   C18622381   5.399   6.131   8.130 -0.0810  0.0506  0.1280
   38TAL   C18722382   5.426   5.978   8.127 -0.7236  0.0237 -0.2856
   38TAL   C18822383   5.562   5.932   8.078  0.3082  0.3104 -0.3428
   38TAL   C18922384   5.690   5.975   8.146  0.4212 -0.3307  0.0260
   38TAL   C19022385   5.809   5.897   8.106  0.6482  0.2252 -0.5726
   39HTM   C19122386   5.295   6.439   7.783 -0.8015  0.4605 -0.3670
   39HTM   C19222387   5.202   6.528   7.828 -0.2155  0.7410  0.3104
   39HTM   C19322388   5.249   6.664   7.833  0.5105  0.4740  0.8271
   39HTM   C19422389   5.378   6.679   7.792  0.4782 -0.0097  0.5439
   39HTM    S2022390   5.451   6.521   7.743 -0.4793 -0.1667 -0.4051
   40TAL   C19522391   5.166   6.784   7.879  0.4215  0.2713 -0.2273
   40TAL   C19622392   5.049   6.839   7.799 -0.1867  0.1769  0.1114
   40TAL   C19722393   5.075   6.886   7.655  0.4732 -0.2812  0.0010
   40TAL   C19822394   5.173   6.996   7.624 -0.3459 -0.3270 -0.3753
   40TAL   C19922395   5.145   7.133   7.700 -0.0182 -0.0226  0.3363
   40TAL   C20022396   5.237   7.244   7.646 -0.0739  0.4496 -0.3344
   41HTM   C20122397   5.460   6.794   7.763  0.2444 -0.0664 -0.0769
   41HTM   C20222398   5.539   6.815   7.654  0.3438  0.2718  0.0577
   41HTM   C20322399   5.596   6.947   7.648  0.1166  0.3855  0.3672
   41HTM   C20422400   5.560   7.027   7.752 -0.1566  0.1342  0.4682
   41HTM    S2122401   5.451   6.941   7.867 -0.1473 -0.2690  0.1785
   42TAL   C20522402   5.694   6.966   7.535  0.2421  0.3433 -0.4659
   42TAL   C20622403   5.640   7.023   7.406  0.5059 -0.1685  0.0813
   42TAL   C20722404   5.752   7.076   7.317 -0.1601 -0.6482  0.8108
   42TAL   C20822405   5.780   7.232   7.315 -0.6857 -0.4599 -0.1398
   42TAL   C20922406   5.669   7.329   7.291  0.1851 -0.0747 -0.2352
   42TAL   C21022407   5.700   7.473   7.268 -0.1275  0.3863  0.0638
   43HTM   C21122408   5.578   7.170   7.772  0.0472 -0.0693 -0.1111
   43HTM   C21222409   5.565   7.245   7.885 -0.2909 -0.0827 -0.1390
   43HTM   C21322410   5.581   7.387   7.862 -0.3705 -0.0668 -0.0989
   43HTM   C21422411   5.606   7.419   7.732 -0.0931 -0.0416 -0.0408
   43HTM    S2222412   5.611   7.272   7.627  0.2931 -0.0361 -0.0319
   44TAL   C21522413   5.570   7.492   7.975  0.0629 -0.0165  0.0433
   44TAL   C21622414   5.445   7.497   8.064 -0.1188 -0.4327 -0.0013
   44TAL   C21722415   5.314   7.510   7.984 -0.7436 -0.2196  0.2246
   44TAL   C21822416   5.315   7.607   7.866  0.4894 -0.3764 -0.3868
   44TAL   C21922417   5.178   7.626   7.795 -0.1646 -0.1577 -0.8197
   44TAL   C22022418   5.184   7.731   7.680  0.0118  0.0500 -0.4513
   45HTM   C22122419   5.638   7.542   7.665  0.0217  0.3059  0.5684
   45HTM   C22222420   5.556   7.638   7.615  0.0000  0.2310  0.4587
   45HTM   C22322421   5.625   7.759   7.577 -0.0002  0.1316  0.1397
   45HTM   C22422422   5.759   7.754   7.598  0.0214  0.1308  0.0054
   45HTM    S2322423   5.810   7.596   7.668  0.0437  0.2565  0.2744
   46TAL   C22522424   5.555   7.875   7.513 -0.2890  0.4343 -0.2139
   46TAL   C22622425   5.494   7.876   7.375  0.4351  0.1734 -0.7613
   46TAL   C22722426   5.576   7.818   7.267  0.0985 -0.6574 -0.2851
   46TAL   C22822427   5.658   7.924   7.198  0.3495  0.1659 -0.4539
   46TAL   C22922428   5.751   7.875   7.084  0.0743 -0.1778 -0.0432
   46TAL   C23022429   5.879   7.801   7.137 -0.0663  0.1777  0.0428
   47HTM   C23122430   5.867   7.846   7.575  0.3411 -0.4076 -0.0428
   47HTM   C23222431   5.880   7.939   7.477  0.0873 -0.3071  0.0169
   47HTM   C23322432   5.989   8.031   7.498 -0.3088  0.1273  0.1969
   47HTM   C23422433   6.059   8.007   7.613 -0.3576  0.3583  0.2746
   47HTM    S2422434   5.992   7.867   7.704  0.0970  0.0422  0.1246
   48TAL   C23522435   6.023   8.147   7.403  0.1659  0.5001 -0.0487
   48TAL   C23622436   6.033   8.279   7.476 -0.3454 -0.3843  0.7048
   48TAL   C23722437   6.065   8.409   7.396  0.8863 -0.1998 -0.3260
   48TAL   C23822438   6.204   8.426   7.335  0.5079  0.5424 -0.1751
   48TAL   C23922439   6.216   8.365   7.202 -0.7775  0.0305  0.4877
   48TAL   C24022440   6.350   8.373   7.135  0.1379 -0.0889  0.2160
    1HTM     C122441   2.721   0.273   4.658  0.0348 -0.3165  0.2523
    1HTM     C222442   2.836   0.231   4.719  0.0939 -0.4412  0.0567
    1HTM     C322443   2.913   0.338   4.777  0.3504 -0.5156 -0.1442
    1HTM     C422444   2.857   0.461   4.760  0.4869 -0.4477 -0.1020
    1HTM     S122445   2.701   0.452   4.669  0.3006 -0.2831  0.1974
    2TAL     C522446   3.042   0.317   4.856  0.0924 -0.5095  0.0451
    2TAL     C622447   3.038   0.234   4.987 -0.0807 -0.5592  0.5582
    2TAL     C722448   3.052   0.079   4.968 -0.3868 -0.1943 -0.0358
    2TAL     C822449   2.977  -0.009   5.066 -0.6823  0.3133 -0.3294
    2TAL     C922450   2.980  -0.159   5.043  0.1544  0.5050 -0.2533
    2TAL    C1022451   3.114  -0.212   5.010  0.6456  0.4612 -0.2294
    3HTM    C1122452   2.888   0.591   4.805 -0.1351  0.0839 -0.1126
    3HTM    C1222453   2.802   0.672   4.874 -0.4381  0.1598 -0.5796
    3HTM    C1322454   2.863   0.793   4.922 -0.6943  0.2944 -0.5906
    3HTM    C1422455   2.995   0.804   4.891 -0.5866  0.3210 -0.1320
    3HTM     S222456   3.053   0.661   4.797 -0.1498  0.1772  0.3530
    4TAL    C1522457   2.777   0.890   5.000 -0.0305 -0.5462  0.2752
    4TAL    C1622458   2.629   0.857   5.038 -0.2966 -0.0483  0.4521
    4TAL    C1722459   2.569   0.964   5.130 -0.2247 -0.0848  0.3063
    4TAL    C1822460   2.434   0.916   5.158  0.0788 -0.7756 -0.1911
    4TAL    C1922461   2.366   0.976   5.277  0.0817  0.1479 -0.0812
    4TAL    C2022462   2.227   0.921   5.305  0.0050  1.1614  0.2244
    5HTM    C2122463   3.091   0.904   4.938  0.1392 -0.3811  0.6334
    5HTM    C2222464   3.067   1.015   5.013  0.2007 -0.2880  0.5152
    5HTM    C2322465   3.186   1.090   5.045  0.1907 -0.0823  0.0706
    5HTM    C2422466   3.300   1.036   4.993  0.1213 -0.0185 -0.1508
    5HTM     S322467   3.266   0.885   4.900  0.0627 -0.2149  0.1880
    6TAL    C2522468   3.187   1.233   5.105 -0.3368  0.1932 -1.0771
    6TAL    C2622469   3.059   1.303   5.106  0.2143  0.4408 -0.3741
    6TAL    C2722470   3.075   1.450   5.141  0.0985 -0.2144 -0.3275
    6TAL    C2822471   2.939   1.517   5.190 -0.1600  0.6063  0.7432
    6TAL    C2922472   2.844   1.538   5.076 -0.3440  0.4108  0.5349
    6TAL    C3022473   2.741   1.645   5.106 -0.3890 -0.4936 -0.0126
    7HTM    C3122474   3.439   1.073   5.011  0.1457 -0.2232  0.1368
    7HTM    C3222475   3.536   1.058   4.916  0.0290 -0.8516  0.1099
    7HTM    C3322476   3.663   1.114   4.954  0.1878 -0.9642 -0.2522
    7HTM    C3422477   3.663   1.172   5.078  0.4255 -0.4216 -0.5015
    7HTM     S422478   3.501   1.159   5.157  0.4676  0.2790 -0.2966
    8TAL    C3522479   3.781   1.112   4.860  0.0151 -0.2203 -0.1917
    8TAL    C3622480   3.827   0.980   4.797 -0.3351  0.2957 -0.4586
    8TAL    C3722481   3.755   0.924   4.678  0.2116  0.4467 -0.3688
    8TAL    C3822482   3.658   0.811   4.706  0.2973  0.6624 -0.7557
    8TAL    C3922483   3.577   0.753   4.592 -0.1829  0.2834 -0.2097
    8TAL    C4022484   3.467   0.654   4.636  0.4127 -0.1424 -0.3027
    9HTM    C4122485   3.767   1.243   5.149  0.0649  0.1703  0.2618
    9HTM    C4222486   3.858   1.189   5.235 -0.5949  0.6422  1.2805
    9HTM    C4322487   3.961   1.282   5.275 -0.9723  0.8985  1.6649
    9HTM    C4422488   3.948   1.406   5.220 -0.6004  0.6219  0.9390
    9HTM     S522489   3.804   1.416   5.112  0.2621  0.0115 -0.2952
   10TAL    C4522490   4.065   1.244   5.384  0.1529 -0.5609 -0.3079
   10TAL    C4622491   4.059   1.105   5.450 -0.0830  0.0289 -0.4099
   10TAL    C4722492   4.176   1.020   5.415  0.4631  0.3431  0.0230
   10TAL    C4822493   4.153   0.872   5.449  0.4978  0.0263  0.0561
   10TAL    C4922494   4.247   0.771   5.377  0.3057 -0.2381  0.1882
   10TAL    C5022495   4.190   0.625   5.377  0.2833  0.1504 -0.4816
   11HTM    C5122496   4.021   1.531   5.230  0.1495 -0.0639 -0.2024
   11HTM    C5222497   4.154   1.537   5.259  0.1705  0.0172 -0.3176
   11HTM    C5322498   4.208   1.670   5.251  0.0386  0.0805 -0.1714
   11HTM    C5422499   4.117   1.765   5.216 -0.0832  0.0475  0.0559
   11HTM     S622500   3.953   1.693   5.190 -0.0405 -0.0666  0.1026
   12TAL    C5522501   4.354   1.702   5.271 -0.2006  0.3831 -0.1979
   12TAL    C5622502   4.440   1.625   5.171  0.1279  0.1388 -0.3703
   12TAL    C5722503   4.587   1.648   5.199 -0.6074  0.0015  0.7372
   12TAL    C5822504   4.677   1.548   5.138 -0.4746  0.2155 -0.1600
   12TAL    C5922505   4.826   1.577   5.144  0.8541  0.1354 -0.2179
   12TAL    C6022506   4.917   1.462   5.098  0.0279 -0.1427 -0.3108
   13HTM    C6122507   4.141   1.908   5.178 -0.0353 -0.1105 -0.3535
   13HTM    C6222508   4.249   1.957   5.111 -0.2148  0.0507 -0.5250
   13HTM    C6322509   4.244   2.099   5.090 -0.4156  0.0578 -0.4339
   13HTM    C6422510   4.133   2.159   5.141 -0.3888 -0.0980 -0.1933
   13HTM     S722511   4.024   2.039   5.220 -0.1060 -0.2670 -0.0614
   14TAL    C6522512   4.357   2.173   5.017  0.2745  0.1825  0.9647
   14TAL    C6622513   4.439   2.099   4.909  0.4304 -0.1605  1.1473
   14TAL    C6722514   4.539   1.997   4.947 -0.0851  0.0677  0.2578
   14TAL    C6822515   4.579   1.896   4.837 -0.2045  0.3394  0.4704
   14TAL    C6922516   4.699   1.805   4.878 -0.2054  0.4037 -0.4267
   14TAL    C7022517   4.722   1.698   4.778 -0.1089 -0.1585  0.8809
   15HTM    C7122518   4.097   2.303   5.151  0.4728  0.2659  0.6187
   15HTM    C7222519   4.175   2.412   5.124  0.3920  0.4227  1.0111
   15HTM    C7322520   4.109   2.537   5.145  0.1025  0.2911  0.8869
   15HTM    C7422521   3.980   2.525   5.188 -0.0374  0.0338  0.3995
   15HTM     S822522   3.932   2.351   5.205  0.1876 -0.0628  0.0573
   16TAL    C7522523   4.188   2.672   5.122  0.5161 -0.1126 -0.1437
   16TAL    C7622524   4.306   2.675   5.029 -0.3838 -0.0474  0.0172
   16TAL    C7722525   4.362   2.813   4.998 -0.2868 -0.3727 -0.7611
   16TAL    C7822526   4.267   2.890   4.916 -0.1363 -0.5972  0.0332
   16TAL    C7922527   4.334   3.022   4.876 -0.6770 -0.3464 -0.2096
   16TAL    C8022528   4.259   3.097   4.765 -0.5772 -0.4872  0.0405
   17HTM    C8122529   3.884   2.630   5.209 -0.0481  0.5160  0.2174
   17HTM    C8222530   3.895   2.756   5.160  0.0360  0.6446  0.5615
   17HTM    C8322531   3.784   2.842   5.194  0.0761  0.6168  0.7646
   17HTM    C8422532   3.689   2.780   5.269  0.0226  0.4667  0.5755
   17HTM     S922533   3.732   2.608   5.303 -0.0835  0.3482  0.1223
   18TAL    C8522534   3.774   2.977   5.134  0.1035 -0.3379  0.4418
   18TAL    C8622535   3.692   2.976   5.006  0.6380 -0.1899  1.1157
   18TAL    C8722536   3.657   3.115   4.955  0.4416  0.0331  0.4954
   18TAL    C8822537   3.531   3.109   4.865 -0.0897 -0.2399  0.5450
   18TAL    C8922538   3.404   3.045   4.923  0.2005 -0.1367 -0.4206
   18TAL    C9022539   3.289   3.046   4.824  0.4103 -0.0419  0.2681
   19HTM    C9122540   3.575   2.830   5.337  0.1173 -0.2382 -0.0292
   19HTM    C9222541   3.499   2.936   5.296  0.0591 -0.2912 -0.0594
   19HTM    C9322542   3.397   2.974   5.390  0.1566 -0.2046  0.0105
   19HTM    C9422543   3.395   2.898   5.503  0.2890 -0.0852  0.0934
   19HTM    S1022544   3.523   2.770   5.499  0.3009 -0.0732  0.0904
   20TAL    C9522545   3.310   3.097   5.377  0.6834  0.6276 -0.5050
   20TAL    C9622546   3.321   3.197   5.265 -0.4416 -0.1538 -0.1408
   20TAL    C9722547   3.448   3.273   5.236 -0.1869 -0.1896 -0.2821
   20TAL    C9822548   3.445   3.395   5.147  0.4339 -0.4493  0.2941
   20TAL    C9922549   3.583   3.461   5.123 -0.2559 -0.0187  0.2151
   20TAL   C10022550   3.577   3.587   5.034  0.2559 -0.1703  0.6250
   21HTM   C10122551   3.312   2.905   5.619 -0.0255  0.1786 -0.1926
   21HTM   C10222552   3.178   2.883   5.630  0.0105  0.0190 -0.0720
   21HTM   C10322553   3.131   2.874   5.765  0.1639 -0.1674 -0.0298
   21HTM   C10422554   3.229   2.890   5.859  0.2447 -0.1495 -0.1183
   21HTM    S1122555   3.390   2.917   5.781  0.1328  0.1058 -0.2627
   22TAL   C10522556   2.988   2.859   5.795 -0.3152 -0.7697 -0.0790
   22TAL   C10622557   2.913   2.753   5.708 -0.2578  0.3045  0.2546
   22TAL   C10722558   2.769   2.723   5.732  0.3099 -0.8651 -0.2726
   22TAL   C10822559   2.676   2.842   5.700 -0.6571 -0.7030  0.2992
   22TAL   C10922560   2.527   2.828   5.710  0.0507  0.2520  0.0300
   22TAL   C11022561   2.466   2.722   5.805  0.4553  0.0348 -0.1635
   23HTM   C11122562   3.223   2.887   6.006  0.3654 -0.1308 -0.0207
   23HTM   C11222563   3.239   2.989   6.094  0.6684 -0.1593 -0.0427
   23HTM   C11322564   3.227   2.949   6.232  0.5755 -0.0980 -0.0331
   23HTM   C11422565   3.201   2.816   6.248  0.2018 -0.0231 -0.0039
   23HTM    S1222566   3.190   2.730   6.090 -0.0640 -0.0241  0.0142
   24TAL   C11522567   3.246   3.051   6.348 -0.1533  0.5964  0.1678
   24TAL   C11622568   3.129   3.124   6.415  0.1921  0.0770  0.7553
   24TAL   C11722569   3.168   3.257   6.484 -0.9094  0.5087 -0.5194
   24TAL   C11822570   3.064   3.314   6.577  1.1309 -0.0471  0.6428
   24TAL   C11922571   2.922   3.321   6.521  0.2378  0.2541 -0.6638
   24TAL   C12022572   2.817   3.338   6.628 -0.3318 -0.2835  0.4624
   25HTM   C12122573   3.191   2.733   6.365  0.1124  0.0336  0.0213
   25HTM   C12222574   3.114   2.750   6.476 -0.0417 -0.0694 -0.0703
   25HTM   C12322575   3.119   2.639   6.567 -0.0978 -0.1154 -0.1228
   25HTM   C12422576   3.201   2.537   6.526  0.0135 -0.0470 -0.0711
   25HTM    S1322577   3.277   2.575   6.367  0.1992  0.0814  0.0488
   26TAL   C12522578   3.046   2.638   6.698  0.3937  1.0891 -0.1234
   26TAL   C12622579   2.893   2.627   6.686  0.1376  0.1741 -0.5312
   26TAL   C12722580   2.828   2.664   6.823  0.5864 -0.3399  0.0183
   26TAL   C12822581   2.680   2.636   6.847 -0.3814  0.0299 -0.3035
   26TAL   C12922582   2.633   2.489   6.836 -0.6755  0.4013 -0.1488
   26TAL   C13022583   2.692   2.388   6.933 -0.0367 -0.3065  0.4571
   27HTM   C13122584   3.243   2.413   6.586  0.1479 -0.1124  0.1764
   27HTM   C13222585   3.171   2.318   6.651  0.2635 -0.2586  0.0901
   27HTM   C13322586   3.243   2.194   6.670  0.4616 -0.1422  0.1009
   27HTM   C13422587   3.370   2.196   6.620  0.4970  0.0927  0.1952
   27HTM    S1422588   3.408   2.354   6.543  0.2814  0.1861  0.2788
   28TAL   C13522589   3.181   2.087   6.759 -0.1372  0.6874  0.2699
   28TAL   C13622590   3.045   2.102   6.842 -0.4502 -0.0358  0.3965
   28TAL   C13722591   2.964   1.975   6.847  0.0513  0.1594  0.5571
   28TAL   C13822592   2.831   2.015   6.909 -0.6447  0.2573  0.3647
   28TAL   C13922593   2.739   1.893   6.943  0.1286 -0.1406 -0.0595
   28TAL   C14022594   2.784   1.791   7.048 -0.4728  0.2361  0.3052
   29HTM   C14122595   3.472   2.093   6.600 -0.1543 -0.1636  0.3018
   29HTM   C14222596   3.586   2.105   6.526 -0.2359  0.0443  0.2069
   29HTM   C14322597   3.661   1.982   6.516 -0.1140  0.1358 -0.0062
   29HTM   C14422598   3.604   1.877   6.582  0.0605 -0.0024 -0.0738
   29HTM    S1522599   3.450   1.926   6.663  0.0846 -0.2608  0.1282
   30TAL   C14522600   3.792   1.992   6.439  0.2577  0.1587  0.1611
   30TAL   C14622601   3.793   1.963   6.294  0.0244 -0.0370  0.1918
   30TAL   C14722602   3.926   1.986   6.222  0.3359  0.5272  0.8455
   30TAL   C14822603   3.927   1.941   6.074 -0.1680 -0.3240 -0.4350
   30TAL   C14922604   4.013   2.036   5.988 -0.1095 -0.4882  0.1990
   30TAL   C15022605   4.094   1.959   5.878  0.5245  0.0378 -0.0147
   31HTM   C15122606   3.654   1.739   6.594 -0.0241 -0.1472 -0.1829
   31HTM   C15222607   3.785   1.701   6.598 -0.0103 -0.1076 -0.2587
   31HTM   C15322608   3.803   1.558   6.608  0.0373 -0.0932 -0.1407
   31HTM   C15422609   3.686   1.488   6.612  0.0597 -0.1219  0.0256
   31HTM    S1622610   3.543   1.597   6.603  0.0221 -0.1695  0.0457
   32TAL   C15522611   3.944   1.498   6.613 -0.0182  0.6296  0.4532
   32TAL   C15622612   4.037   1.537   6.725 -0.4246 -0.0927 -0.1750
   32TAL   C15722613   4.009   1.511   6.873 -0.1211 -0.4840 -0.0796
   32TAL   C15822614   3.970   1.371   6.928 -0.0350 -0.1440  0.1486
   32TAL   C15922615   4.061   1.247   6.909  0.0441 -0.0043 -0.4096
   32TAL   C16022616   4.017   1.121   6.981  0.7500 -0.2249 -0.0842
   33HTM   C16122617   3.657   1.350   6.646  0.0485 -0.0013 -0.4068
   33HTM   C16222618   3.732   1.236   6.656  0.0328 -0.0280 -0.5789
   33HTM   C16322619   3.653   1.118   6.680  0.0428 -0.0003 -0.4008
   33HTM   C16422620   3.519   1.141   6.687  0.0664  0.0476 -0.0933
   33HTM    S1722621   3.481   1.316   6.664  0.0777  0.0616 -0.0039
   34TAL   C16522622   3.723   0.988   6.705  0.0896  0.8365 -0.2997
   34TAL   C16622623   3.703   0.921   6.839  0.3139  0.6057  0.0060
   34TAL   C16722624   3.740   0.777   6.843  0.3655  0.6219  0.0153
   34TAL   C16822625   3.744   0.717   6.987 -0.0500  0.5966 -0.6065
   34TAL   C16922626   3.612   0.713   7.061  0.3091 -0.7001  0.4278
   34TAL   C17022627   3.652   0.711   7.213  0.3776 -0.0276 -0.2018
   35HTM   C17122628   3.404   1.047   6.698 -0.0250 -0.4086  0.0276
   35HTM   C17222629   3.397   0.910   6.696 -0.3092 -0.3990  0.2320
   35HTM   C17322630   3.266   0.858   6.725 -0.4120 -0.0826  0.3374
   35HTM   C17422631   3.173   0.955   6.750 -0.2060  0.1489  0.2135
   35HTM    S1822632   3.244   1.120   6.738  0.1361 -0.0160 -0.0482
   36TAL   C17522633   3.238   0.705   6.706 -0.2540 -0.3963  0.5659
   36TAL   C17622634   3.342   0.623   6.792  0.8062 -0.2825  0.0260
   36TAL   C17722635   3.344   0.469   6.776  0.1366 -0.0243  0.1723
   36TAL   C17822636   3.450   0.419   6.876  0.0372  0.1549 -0.4079
   36TAL   C17922637   3.556   0.342   6.796  0.5115  0.0953 -0.6713
   36TAL   C18022638   3.681   0.325   6.876  0.5193 -0.3514 -0.1805
   37HTM   C18122639   3.029   0.943   6.772  0.0814  0.1583  0.2800
   37HTM   C18222640   2.944   1.046   6.799  0.1087  0.1196  0.5116
   37HTM   C18322641   2.807   1.006   6.816  0.0888  0.1252  0.3638
   37HTM   C18422642   2.787   0.872   6.802  0.0464  0.1684  0.0195
   37HTM    S1922643   2.941   0.785   6.765  0.0283  0.2054 -0.1462
   38TAL   C18522644   2.694   1.100   6.851 -0.4727 -0.1903 -0.1486
   38TAL   C18622645   2.622   1.162   6.730 -0.2804 -0.6118 -0.6500
   38TAL   C18722646   2.512   1.259   6.757 -0.0447 -0.1492  0.3720
   38TAL   C18822647   2.525   1.381   6.848 -0.8045  0.4781 -0.6100
   38TAL   C18922648   2.432   1.507   6.835 -0.1394  1.0013 -0.1147
   38TAL   C19022649   2.278   1.482   6.827  0.1631 -0.1354 -0.5694
   39HTM   C19122650   2.668   0.782   6.803  0.2283 -0.1175 -0.4662
   39HTM   C19222651   2.534   0.805   6.818  0.2683  0.3266 -0.7558
   39HTM   C19322652   2.453   0.687   6.803 -0.0616  0.5302 -0.5863
   39HTM   C19422653   2.525   0.574   6.776 -0.3534  0.2413 -0.1672
   39HTM    S2022654   2.702   0.609   6.767 -0.2332 -0.3145  0.0476
   40TAL   C19522655   2.302   0.693   6.812  0.5860  0.2566  0.3292
   40TAL   C19622656   2.217   0.814   6.857 -0.3792 -0.2447  0.5811
   40TAL   C19722657   2.208   0.936   6.772 -0.1638  0.7872  0.0773
   40TAL   C19822658   2.112   1.037   6.836  0.2999 -0.2925  0.1924
   40TAL   C19922659   2.098   1.158   6.746 -0.0204 -1.1657  0.2385
   40TAL   C20022660   2.009   1.257   6.824  0.6171  0.2161 -0.0412
   41HTM   C20122661   2.487   0.435   6.761 -0.2118  0.1830 -0.1580
   41HTM   C20222662   2.561   0.324   6.788  0.1649  0.3671 -0.4325
   41HTM   C20322663   2.498   0.201   6.749  0.4295  0.2230 -0.4101
   41HTM   C20422664   2.375   0.218   6.693  0.2547 -0.0710 -0.1187
   41HTM    S2122665   2.329   0.392   6.684 -0.2619 -0.1896  0.1526
   42TAL   C20522666   2.569   0.068   6.777 -0.4432 -0.5614  0.4782
   42TAL   C20622667   2.717   0.053   6.720 -0.0642 -0.1627 -0.7537
   42TAL   C20722668   2.775  -0.087   6.744  0.7063  0.6007  0.2297
   42TAL   C20822669   2.917  -0.110   6.689  0.7051  0.2238 -0.0050
   42TAL   C20922670   2.959  -0.251   6.683 -1.0439  0.4718  0.9267
   42TAL   C21022671   3.095  -0.240   6.611  0.6335 -0.0515  0.1906
   43HTM   C21122672   2.277   0.120   6.644  0.1167 -0.2830 -0.2432
   43HTM   C21222673   2.144   0.117   6.677  0.2071 -0.4019  0.1123
   43HTM   C21322674   2.073   0.005   6.621  0.1707 -0.5012  0.3555
   43HTM   C21422675   2.151  -0.077   6.546  0.0528 -0.4579  0.1863
   43HTM    S2222676   2.322  -0.019   6.539 -0.0221 -0.2869 -0.2981
   44TAL   C21522677   1.926  -0.033   6.647 -0.2525 -0.1442  0.0736
   44TAL   C21622678   1.841   0.062   6.735  0.1696 -0.4371  0.2303
   44TAL   C21722679   1.884   0.065   6.885 -0.5169 -0.7251 -0.4800
   44TAL   C21822680   1.870  -0.060   6.975  0.1996  0.4661  1.0043
   44TAL   C21922681   1.938  -0.036   7.109 -0.3207  0.0643 -0.0843
   44TAL   C22022682   1.959  -0.163   7.183  0.1093  0.0521  0.1232
   45HTM   C22122683   2.122  -0.200   6.478 -0.3571  0.5532  0.2579
   45HTM   C22222684   2.074  -0.320   6.524 -0.7423  0.7148  0.2789
   45HTM   C22322685   2.081  -0.426   6.427 -0.6372  0.5584  0.4585
   45HTM   C22422686   2.135  -0.388   6.308 -0.1719  0.2781  0.5744
   45HTM    S2322687   2.180  -0.213   6.308  0.1720  0.1893  0.4648
   46TAL   C22522688   2.017  -0.557   6.457 -0.3234 -0.6995 -0.7649
   46TAL   C22622689   2.087  -0.664   6.531 -0.2915 -0.0379 -0.3262
   46TAL   C22722690   2.143  -0.647   6.669  0.6067  0.0527 -0.5644
   46TAL   C22822691   2.238  -0.764   6.710  0.6442 -0.5272 -0.4468
   46TAL   C22922692   2.274  -0.765   6.857 -0.3346 -0.2215 -0.4706
   46TAL   C23022693   2.360  -0.892   6.885 -0.4793 -0.0372 -0.8377
   47HTM   C23122694   2.146  -0.455   6.182  0.1583 -0.0608 -0.0460
   47HTM   C23222695   2.134  -0.397   6.060  0.2477 -0.1149 -0.0803
   47HTM   C23322696   2.145  -0.490   5.950  0.2519 -0.1750 -0.0293
   47HTM   C23422697   2.167  -0.619   5.989  0.1658 -0.1668  0.0442
   47HTM    S2422698   2.174  -0.633   6.169  0.0719 -0.0821  0.0545
   48TAL   C23522699   2.129  -0.456   5.802 -0.6406 -0.0419 -0.2507
   48TAL   C23622700   2.055  -0.335   5.747 -0.0318  0.0849  0.1313
   48TAL   C23722701   2.051  -0.307   5.597 -0.1852 -0.6439 -0.3752
   48TAL   C23822702   2.005  -0.422   5.506 -0.4217 -0.4131 -0.6447
   48TAL   C23922703   2.000  -0.404   5.350 -0.6149  0.2274 -0.1198
   48TAL   C24022704   1.922  -0.505   5.263  0.2081  0.2523 -0.3996
    1HTM     C122705   0.178   1.703   8.573  0.4215  0.0468 -0.0574
    1HTM     C222706   0.067   1.749   8.637  0.3327  0.2095 -0.3285
    1HTM     C322707   0.095   1.831   8.751  0.1764  0.1037 -0.2136
    1HTM     C422708   0.228   1.849   8.775  0.1461 -0.1396  0.1442
    1HTM     S122709   0.329   1.762   8.654  0.3139 -0.2551  0.3655
    2TAL     C522710  -0.009   1.885   8.854 -0.0905 -0.1188  0.0732
    2TAL     C622711  -0.155   1.837   8.838 -0.2771  0.3991  0.5411
    2TAL     C722712  -0.237   1.885   8.713 -0.4108 -0.2123 -0.1242
    2TAL     C822713  -0.235   2.037   8.684 -0.5141  0.0159 -0.1256
    2TAL     C922714  -0.324   2.069   8.571  0.4560 -0.7211  0.3791
    2TAL    C1022715  -0.361   2.211   8.531 -0.3036  0.1107 -0.0853
    3HTM    C1122716   0.293   1.940   8.871 -0.3471  0.2708  0.7926
    3HTM    C1222717   0.310   1.915   9.004 -0.3030  0.7706  0.8807
    3HTM    C1322718   0.411   1.998   9.066 -0.2583  0.9794  0.5302
    3HTM    C1422719   0.471   2.085   8.980 -0.2683  0.6389  0.1757
    3HTM     S222720   0.404   2.070   8.813 -0.3355  0.0231  0.2572
    4TAL    C1522721   0.443   1.971   9.207 -0.3396  0.0835  0.0649
    4TAL    C1622722   0.489   1.831   9.252  0.3042  0.4545 -0.0445
    4TAL    C1722723   0.535   1.818   9.398  0.3551 -0.3303  0.1902
    4TAL    C1822724   0.656   1.905   9.433 -0.2720 -0.3291 -0.4287
    4TAL    C1922725   0.777   1.885   9.345 -0.4662  0.2306 -0.3142
    4TAL    C2022726   0.898   1.970   9.382  0.0269  0.1229  0.5545
    5HTM    C2122727   0.577   2.183   8.991 -0.0803 -0.0933 -0.3137
    5HTM    C2222728   0.629   2.262   8.894  0.0526 -0.3220 -0.4301
    5HTM    C2322729   0.736   2.348   8.940  0.0591 -0.2875 -0.5093
    5HTM    C2422730   0.764   2.334   9.072 -0.0687 -0.0325 -0.4532
    5HTM     S322731   0.658   2.210   9.150 -0.2085  0.1855 -0.2952
    6TAL    C2522732   0.802   2.437   8.837 -0.5597  0.4268 -0.2564
    6TAL    C2622733   0.880   2.365   8.718 -0.7504  0.5572  0.9689
    6TAL    C2722734   0.980   2.257   8.758 -0.3830 -0.1870  0.4917
    6TAL    C2822735   1.095   2.305   8.843  0.4586 -0.5650 -0.0709
    6TAL    C2922736   1.190   2.186   8.868 -0.2985  0.0145 -0.2201
    6TAL    C3022737   1.304   2.219   8.959 -0.2842 -0.3988 -0.0493
    7HTM    C3122738   0.868   2.397   9.153  0.3656 -0.0242  0.0948
    7HTM    C3222739   0.970   2.338   9.222  0.3693  0.3119  0.3778
    7HTM    C3322740   1.067   2.432   9.273  0.0426  0.6125  0.4492
    7HTM    C3422741   1.038   2.562   9.243 -0.2102  0.5054  0.2206
    7HTM     S422742   0.886   2.576   9.147 -0.0541  0.0131 -0.1051
    8TAL    C3522743   1.182   2.383   9.358 -0.1970  0.2711 -0.1042
    8TAL    C3622744   1.239   2.242   9.323  0.3087 -0.1259 -0.0466
    8TAL    C3722745   1.366   2.200   9.398 -0.3416  0.3548 -0.2834
    8TAL    C3822746   1.405   2.059   9.379  0.5494  0.0071 -0.1736
    8TAL    C3922747   1.428   2.012   9.239 -0.0011  0.7719 -0.4583
    8TAL    C4022748   1.476   1.865   9.235 -0.7663  0.0317  0.3302
    9HTM    C4122749   1.115   2.683   9.276 -0.0163  0.1635 -0.4511
    9HTM    C4222750   1.064   2.801   9.321  0.0823  0.2184 -0.4808
    9HTM    C4322751   1.163   2.902   9.345  0.2173 -0.0203 -0.0282
    9HTM    C4422752   1.290   2.861   9.319  0.2215 -0.2570  0.3466
    9HTM     S522753   1.295   2.691   9.260  0.0541 -0.1966  0.1555
   10TAL    C4522754   1.122   3.045   9.380 -0.3689  0.2236  0.9930
   10TAL    C4622755   1.024   3.117   9.281 -0.1157 -0.6865 -0.4817
   10TAL    C4722756   0.874   3.097   9.317 -0.2202  0.4213 -0.4095
   10TAL    C4822757   0.787   3.183   9.222  0.0200 -0.0601 -0.8235
   10TAL    C4922758   0.644   3.133   9.217  0.1256 -0.1126 -0.6267
   10TAL    C5022759   0.573   3.213   9.108 -1.1714 -0.2696  0.1002
   11HTM    C5122760   1.418   2.927   9.344  0.0772  0.2731  0.2632
   11HTM    C5222761   1.529   2.869   9.398  0.1721  0.0798 -0.1280
   11HTM    C5322762   1.636   2.962   9.423  0.3263 -0.0610 -0.2678
   11HTM    C5422763   1.607   3.091   9.387  0.3490  0.0249  0.0169
   11HTM     S622764   1.441   3.104   9.319  0.1760  0.2925  0.4873
   12TAL    C5522765   1.760   2.912   9.488 -0.1739  0.5424  0.1766
   12TAL    C5622766   1.826   2.795   9.407 -0.1542  0.1631  0.3475
   12TAL    C5722767   1.868   2.826   9.264 -0.2534 -1.1897 -0.2875
   12TAL    C5822768   1.946   2.710   9.203  0.2038  0.1285 -0.2041
   12TAL    C5922769   1.963   2.717   9.058 -0.1610 -0.2548 -0.0185
   12TAL    C6022770   2.042   2.605   8.992  0.0594 -0.2099 -0.1200
   13HTM    C6122771   1.692   3.206   9.397 -0.1821 -0.0261  0.0265
   13HTM    C6222772   1.827   3.210   9.375 -0.1795 -0.2321  0.0024
   13HTM    C6322773   1.888   3.335   9.412 -0.0179 -0.2471 -0.2126
   13HTM    C6422774   1.800   3.426   9.463  0.1027 -0.0525 -0.3524
   13HTM     S722775   1.632   3.361   9.468  0.0211  0.1664 -0.2224
   14TAL    C6522776   2.035   3.359   9.414  0.0846  0.0750  0.0921
   14TAL    C6622777   2.127   3.248   9.361 -0.0973  0.1803 -0.0192
   14TAL    C6722778   2.267   3.270   9.394  0.1090  0.1550  0.1540
   14TAL    C6822779   2.355   3.157   9.357 -0.5442 -0.1771 -0.0107
   14TAL    C6922780   2.501   3.187   9.321 -0.9173  0.5397  0.0623
   14TAL    C7022781   2.549   3.293   9.218 -0.1437 -0.3018  0.1853
   15HTM    C7122782   1.818   3.570   9.510 -0.5218  0.4953 -0.2610
   15HTM    C7222783   1.713   3.656   9.514 -0.2689  0.8330 -0.7141
   15HTM    C7322784   1.748   3.788   9.560 -0.0578  0.6958 -0.4796
   15HTM    C7422785   1.880   3.802   9.590 -0.1496  0.2536  0.1523
   15HTM     S822786   1.971   3.649   9.563 -0.5127 -0.0263  0.5029
   16TAL    C7522787   1.636   3.894   9.574  0.8057  0.3283  0.2750
   16TAL    C7622788   1.569   3.917   9.709  0.2871  0.1975  0.0312
   16TAL    C7722789   1.451   4.013   9.707  0.2066 -0.3898 -0.2625
   16TAL    C7822790   1.489   4.159   9.685  0.1621  0.1279  0.5122
   16TAL    C7922791   1.578   4.222   9.788 -0.6874 -0.1065  0.4082
   16TAL    C8022792   1.498   4.278   9.907 -0.3168 -0.4594  0.1119
   17HTM    C8122793   1.963   3.915   9.630 -0.0055 -0.2023 -0.1112
   17HTM    C8222794   2.099   3.911   9.643 -0.0654 -0.4570  0.4259
   17HTM    C8322795   2.158   4.038   9.677  0.0253 -0.5991  0.8046
   17HTM    C8422796   2.067   4.139   9.689  0.1544 -0.4525  0.5562
   17HTM     S922797   1.899   4.082   9.659  0.1716 -0.1215 -0.1809
   18TAL    C8522798   2.306   4.063   9.724  0.2324  0.1739 -0.0593
   18TAL    C8622799   2.396   3.936   9.717 -0.0742  0.1811  0.0214
   18TAL    C8722800   2.526   3.937   9.798 -0.0284  0.1157  0.1215
   18TAL    C8822801   2.625   3.820   9.793 -0.6727  0.0232 -0.1661
   18TAL    C8922802   2.587   3.677   9.837 -0.2622 -0.7848  0.4003
   18TAL    C9022803   2.521   3.672   9.976  0.2740  0.1736  0.7391
   19HTM    C9122804   2.071   4.282   9.715 -0.2774  0.2796  0.4012
   19HTM    C9222805   1.973   4.356   9.773 -0.2118  0.5319  0.1930
   19HTM    C9322806   2.001   4.497   9.778 -0.0780  0.5178 -0.1894
   19HTM    C9422807   2.121   4.531   9.723 -0.0416  0.2550 -0.2729
   19HTM    S1022808   2.209   4.386   9.661 -0.1746  0.0022  0.1282
   20TAL    C9522809   1.910   4.594   9.853  0.1804 -0.5665  0.3080
   20TAL    C9622810   1.786   4.540   9.917 -0.1665 -0.2174 -0.6903
   20TAL    C9722811   1.812   4.505  10.070  0.1384 -0.7559  0.3135
   20TAL    C9822812   1.689   4.438  10.134 -0.6555 -0.1979 -0.7730
   20TAL    C9922813   1.714   4.396  10.281 -0.4047  0.1463 -0.2312
   20TAL   C10022814   1.585   4.338  10.331  0.2971 -0.0683  0.9967
   21HTM   C10122815   2.177   4.663   9.683 -0.0907 -0.0058  0.2214
   21HTM   C10222816   2.267   4.684   9.583 -0.0763 -0.3021  0.1707
   21HTM   C10322817   2.300   4.823   9.563  0.0306 -0.3717 -0.1446
   21HTM   C10422818   2.235   4.908   9.648  0.0979 -0.1281 -0.3343
   21HTM    S1122819   2.127   4.818   9.761  0.0307  0.2106 -0.1279
   22TAL   C10522820   2.376   4.860   9.440 -0.3668  0.0637 -0.2192
   22TAL   C10622821   2.521   4.805   9.427  0.0681 -0.6793 -0.2114
   22TAL   C10722822   2.557   4.660   9.409  0.1918  0.3160 -0.1967
   22TAL   C10822823   2.706   4.637   9.398  0.0437 -0.3604 -0.8488
   22TAL   C10922824   2.736   4.495   9.362  0.0711  0.5735 -0.0090
   22TAL   C11022825   2.876   4.448   9.406  0.0882 -0.6038  0.5774
   23HTM   C11122826   2.241   5.049   9.656 -0.0264 -0.3973  0.1451
   23HTM   C11222827   2.143   5.133   9.700 -0.1994 -0.5031 -0.0416
   23HTM   C11322828   2.179   5.272   9.697 -0.3475 -0.4635  0.0135
   23HTM   C11422829   2.305   5.295   9.650 -0.2874 -0.3279  0.2423
   23HTM    S1222830   2.388   5.142   9.607 -0.0371 -0.2389  0.4070
   24TAL   C11522831   2.072   5.377   9.732 -0.2591  0.5649 -0.4720
   24TAL   C11622832   2.059   5.409   9.881  0.2183  0.0513  0.2432
   24TAL   C11722833   1.979   5.532   9.920  0.5984  0.3388 -0.5365
   24TAL   C11822834   2.049   5.657   9.878  0.5530 -0.7125 -0.2093
   24TAL   C11922835   2.009   5.786   9.948 -0.4714 -0.3845  0.1747
   24TAL   C12022836   2.078   5.895   9.871  0.3746 -0.3594  0.2012
   25HTM   C12122837   2.382   5.419   9.635 -0.6858 -0.3580 -0.2327
   25HTM   C12222838   2.510   5.423   9.588 -0.8900 -0.8280 -0.8391
   25HTM   C12322839   2.565   5.556   9.581 -0.3313 -1.0571 -0.8122
   25HTM   C12422840   2.479   5.653   9.623  0.2987 -0.7615 -0.1852
   25HTM    S1322841   2.321   5.584   9.674  0.2349 -0.1665  0.4246
   26TAL   C12522842   2.704   5.579   9.518  0.2929  0.9231 -0.3595
   26TAL   C12622843   2.750   5.525   9.388 -0.0141  0.4894 -0.1787
   26TAL   C12722844   2.884   5.587   9.333 -0.0724  0.0619 -0.1238
   26TAL   C12822845   3.000   5.594   9.427  0.3263 -0.0587  0.5383
   26TAL   C12922846   3.104   5.688   9.369  0.1444  0.5883  0.4603
   26TAL   C13022847   3.246   5.653   9.418 -0.1308  0.3379 -0.0006
   27HTM   C13122848   2.489   5.802   9.637  0.1819 -0.2963  0.1381
   27HTM   C13222849   2.387   5.891   9.660 -0.0378 -0.6461  0.5203
   27HTM   C13322850   2.431   6.027   9.672 -0.4776 -0.4807  0.2533
   27HTM   C13422851   2.566   6.043   9.657 -0.5933 -0.0045 -0.3325
   27HTM    S1422852   2.648   5.886   9.628 -0.1521  0.2740 -0.5943
   28TAL   C13522853   2.331   6.144   9.696  0.3186  0.0715 -0.0625
   28TAL   C13622854   2.278   6.183   9.833  0.1713 -0.0253  0.1750
   28TAL   C13722855   2.198   6.312   9.831 -0.4306  0.3429 -0.1899
   28TAL   C13822856   2.262   6.445   9.791  0.3710  0.6022  0.5264
   28TAL   C13922857   2.164   6.560   9.805 -0.5703 -1.1173 -0.1312
   28TAL   C14022858   2.229   6.695   9.774 -0.4492 -0.6311  0.1250
   29HTM   C14122859   2.656   6.161   9.655 -0.1815 -0.1671  0.8484
   29HTM   C14222860   2.634   6.291   9.621 -0.2940 -0.1831  0.8567
   29HTM   C14322861   2.750   6.375   9.637 -0.2530 -0.1657  0.4686
   29HTM   C14422862   2.860   6.309   9.682 -0.1095 -0.1365  0.1645
   29HTM    S1522863   2.826   6.134   9.709 -0.0139 -0.1280  0.3461
   30TAL   C14522864   2.744   6.517   9.602 -0.3312 -0.6940 -0.0820
   30TAL   C14622865   2.671   6.606   9.702  0.4528  0.0441  0.2419
   30TAL   C14722866   2.663   6.755   9.662 -0.5133  0.5755 -0.4134
   30TAL   C14822867   2.595   6.848   9.763  0.7748 -0.0051  0.0205
   30TAL   C14922868   2.576   6.993   9.725 -0.0361  0.4104  0.5134
   30TAL   C15022869   2.702   7.083   9.733 -0.0914 -0.1685 -0.6057
   31HTM   C15122870   2.993   6.357   9.699 -0.1230 -0.2330 -0.1629
   31HTM   C15222871   3.059   6.391   9.813 -0.0763 -0.4301 -0.1317
   31HTM   C15322872   3.183   6.461   9.791 -0.0628 -0.4315 -0.0636
   31HTM   C15422873   3.212   6.480   9.659 -0.0996 -0.2356 -0.0430
   31HTM    S1622874   3.083   6.412   9.552 -0.1541 -0.0323 -0.1084
   32TAL   C15522875   3.278   6.507   9.897 -0.1541  0.2749  0.1854
   32TAL   C15622876   3.233   6.592  10.014 -0.2782 -0.2331  0.2027
   32TAL   C15722877   3.154   6.726   9.986 -0.4940  0.6688  0.1651
   32TAL   C15822878   3.189   6.824   9.874 -0.2548  0.2629  1.0054
   32TAL   C15922879   3.062   6.908   9.834 -0.3409 -0.4021  0.4117
   32TAL   C16022880   3.099   7.006   9.728  0.8834 -0.4999 -0.3050
   33HTM   C16122881   3.320   6.558   9.598  0.0993  0.4054  0.4000
   33HTM   C16222882   3.312   6.675   9.528  0.3519  0.4411  0.4313
   33HTM   C16322883   3.440   6.725   9.486  0.4530  0.1121  0.3390
   33HTM   C16422884   3.546   6.647   9.523  0.2774 -0.1744  0.2374
   33HTM    S1722885   3.491   6.502   9.616 -0.0316 -0.0499  0.2505
   34TAL   C16522886   3.449   6.854   9.410 -0.3008 -0.0269  0.2433
   34TAL   C16622887   3.444   6.974   9.494 -0.0617  0.1035  0.9317
   34TAL   C16722888   3.515   7.103   9.440  0.3678 -0.4097 -0.0264
   34TAL   C16822889   3.663   7.082   9.410  0.9956 -0.1940 -0.2150
   34TAL   C16922890   3.739   7.213   9.417 -0.3959  0.1820 -0.4191
   34TAL   C17022891   3.869   7.209   9.340 -0.2018 -0.0314  0.8080
   35HTM   C17122892   3.688   6.654   9.487  0.1338  0.1656 -0.4274
   35HTM   C17222893   3.749   6.583   9.388  0.2135  0.1602 -0.3750
   35HTM   C17322894   3.886   6.620   9.366  0.2748  0.0563 -0.1677
   35HTM   C17422895   3.930   6.719   9.449  0.2420 -0.0178 -0.0622
   35HTM    S1822896   3.800   6.773   9.562  0.1302  0.0390 -0.2175
   36TAL   C17522897   3.970   6.548   9.262  0.0833 -0.1740 -0.0035
   36TAL   C17622898   4.058   6.432   9.309 -0.5355 -0.3401  0.2178
   36TAL   C17722899   4.150   6.365   9.208 -0.6095 -0.7691 -0.7799
   36TAL   C17822900   4.196   6.239   9.268 -0.3550  0.7986 -0.0646
   36TAL   C17922901   4.262   6.146   9.169  0.4143  0.4033 -1.0517
   36TAL   C18022902   4.274   6.000   9.221 -0.4893  0.1459 -0.3138
   37HTM   C18122903   4.051   6.793   9.469 -0.1956 -0.2602 -0.2806
   37HTM   C18222904   4.074   6.926   9.455 -0.3698 -0.2861 -0.8808
   37HTM   C18322905   4.213   6.962   9.463 -0.4308 -0.0510 -0.8562
   37HTM   C18422906   4.297   6.856   9.482 -0.3033  0.1540 -0.2373
   37HTM    S1922907   4.205   6.701   9.492 -0.0946  0.0655  0.3672
   38TAL   C18522908   4.264   7.106   9.454  0.0771  0.1095 -0.4215
   38TAL   C18622909   4.253   7.155   9.306 -0.7504 -0.3005 -0.6226
   38TAL   C18722910   4.340   7.277   9.276 -0.2955 -0.4200  0.2175
   38TAL   C18822911   4.488   7.260   9.286  0.1377 -0.4399 -0.2436
   38TAL   C18922912   4.553   7.158   9.198 -0.4338  0.3645  0.2613
   38TAL   C19022913   4.697   7.153   9.235 -0.6124  0.4509  0.4903
   39HTM   C19122914   4.442   6.840   9.483  0.5068 -0.3535 -0.5124
   39HTM   C19222915   4.516   6.789   9.380  1.0512 -0.5851 -0.0120
   39HTM   C19322916   4.658   6.797   9.402  0.9441 -0.3724  0.6449
   39HTM   C19422917   4.693   6.853   9.521  0.3177  0.0210  0.6452
   39HTM    S2022918   4.548   6.902   9.616 -0.1892  0.1552 -0.1905
   40TAL   C19522919   4.768   6.761   9.302  0.4044 -0.1882  0.1653
   40TAL   C19622920   4.799   6.619   9.256  0.5653 -0.3917 -0.0812
   40TAL   C19722921   4.833   6.499   9.349 -0.8055  0.3078  0.6427
   40TAL   C19822922   4.740   6.461   9.469  0.0889  0.8952 -0.1481
   40TAL   C19922923   4.633   6.360   9.439  0.0829  0.3282  0.3429
   40TAL   C20022924   4.504   6.420   9.393 -0.5253 -0.3808  0.1722
   41HTM   C20122925   4.823   6.879   9.579  0.0513 -0.1371 -0.5998
   41HTM   C20222926   4.917   6.791   9.625  0.0894 -0.2279 -0.8503
   41HTM   C20322927   5.038   6.855   9.670  0.0179 -0.2954 -0.5619
   41HTM   C20422928   5.036   6.991   9.659 -0.0750 -0.2555 -0.0915
   41HTM    S2122929   4.880   7.049   9.590 -0.0791 -0.1293  0.0246
   42TAL   C20522930   5.142   6.757   9.728  0.2693 -0.3310 -0.3118
   42TAL   C20622931   5.144   6.711   9.876 -0.3299 -0.1629  0.3439
   42TAL   C20722932   5.038   6.608   9.919 -0.0276 -0.5786  0.2034
   42TAL   C20822933   5.042   6.488   9.826 -0.0440  0.0493  0.1099
   42TAL   C20922934   4.936   6.390   9.881  0.2043 -0.1433  0.0573
   42TAL   C21022935   4.931   6.253   9.811 -0.0737 -0.0565  0.1112
   43HTM   C21122936   5.138   7.090   9.688 -0.0733 -0.3794  0.6187
   43HTM   C21222937   5.116   7.224   9.684 -0.6158 -0.4616  0.6994
   43HTM   C21322938   5.228   7.302   9.729 -0.7455 -0.0226  0.2704
   43HTM   C21422939   5.336   7.227   9.768 -0.3023  0.3941 -0.1374
   43HTM    S2222940   5.303   7.051   9.750  0.3182  0.2635 -0.0102
   44TAL   C21522941   5.221   7.457   9.732 -0.2634  0.2604 -0.0192
   44TAL   C21622942   5.093   7.529   9.696  0.0524  0.0832  0.4220
   44TAL   C21722943   4.975   7.503   9.785 -0.0905 -0.2880  0.4190
   44TAL   C21822944   4.831   7.507   9.737 -0.0245  0.8598  0.2936
   44TAL   C21922945   4.799   7.413   9.616  0.2115  0.2231 -0.3896
   44TAL   C22022946   4.656   7.419   9.566  0.0577  0.1571  0.2256
   45HTM   C22122947   5.472   7.273   9.808  0.1780  0.2780 -0.6815
   45HTM   C22222948   5.591   7.264   9.742  0.1783  0.7734 -0.7569
   45HTM   C22322949   5.695   7.344   9.801  0.0937  0.5822 -0.3361
   45HTM   C22422950   5.655   7.415   9.910  0.0294 -0.0590  0.0602
   45HTM    S2322951   5.482   7.385   9.949  0.0706 -0.4739 -0.0683
   46TAL   C22522952   5.844   7.336   9.743  0.9638 -0.6634  0.3043
   46TAL   C22622953   5.887   7.469   9.677  0.2137  0.8455 -0.2086
   46TAL   C22722954   6.037   7.474   9.652  0.0343 -0.3271 -0.3628
   46TAL   C22822955   6.097   7.366   9.559 -0.7914 -0.1361 -0.0830
   46TAL   C22922956   6.244   7.398   9.541 -0.0120 -0.3236  0.3255
   46TAL   C23022957   6.325   7.303   9.452 -0.0947 -0.0724  0.3975
   47HTM   C23122958   5.730   7.509   9.993 -0.0931 -0.2680  0.1404
   47HTM   C23222959   5.672   7.623  10.039 -0.2055 -0.4792  0.5333
   47HTM   C23322960   5.760   7.705  10.119 -0.1833 -0.5097  0.5398
   47HTM   C23422961   5.885   7.652  10.134 -0.0535 -0.3218  0.1519
   47HTM    S2422962   5.901   7.495  10.048  0.0507 -0.0898 -0.2549
   48TAL   C23522963   5.711   7.834  10.171  0.1358 -0.3988  0.1968
   48TAL   C23622964   5.744   7.969  10.105  0.0854 -0.1619  0.1432
   48TAL   C23722965   5.895   7.999  10.082  0.3930 -0.0443  0.0175
   48TAL   C23822966   5.927   8.142  10.055 -0.3393  0.0345 -0.0211
   48TAL   C23922967   6.078   8.173  10.043  0.3757  0.1400 -0.4133
   48TAL   C24022968   6.121   8.311  10.097 -0.2037  0.4161 -0.6158
    1HTM     C122969   8.928   6.809   7.249  0.0149 -0.0984 -0.0827
    1HTM     C222970   8.858   6.698   7.214 -0.0019  0.0110 -0.4003
    1HTM     C322971   8.721   6.725   7.176  0.0515  0.1595 -0.4866
    1HTM     C422972   8.688   6.857   7.182  0.1103  0.1634 -0.2351
    1HTM     S122973   8.827   6.958   7.236  0.1007 -0.0217  0.1335
    2TAL     C522974   8.639   6.608   7.125  0.0758 -0.0289 -0.3085
    2TAL     C622975   8.672   6.464   7.162  0.3783 -0.0583 -0.1015
    2TAL     C722976   8.557   6.373   7.111  0.3392 -0.5952 -0.1355
    2TAL     C822977   8.559   6.236   7.174 -0.3634 -0.1162  0.4387
    2TAL     C922978   8.438   6.149   7.141  0.4100 -0.3678 -0.0447
    2TAL    C1022979   8.438   6.015   7.211  0.4923  0.4024  0.0184
    3HTM    C1122980   8.560   6.925   7.154  0.2437 -0.3797 -0.5404
    3HTM    C1222981   8.543   7.048   7.099  0.0768 -0.6475 -1.0993
    3HTM    C1322982   8.405   7.085   7.078  0.0114 -0.7329 -0.8152
    3HTM    C1422983   8.317   6.989   7.118  0.1290 -0.5297 -0.0394
    3HTM     S222984   8.402   6.844   7.184  0.3331 -0.2125  0.3952
    4TAL    C1522985   8.364   7.214   7.013  0.0279 -0.3296  0.2656
    4TAL    C1622986   8.453   7.335   6.992 -0.0819  0.3365  0.3464
    4TAL    C1722987   8.378   7.433   6.914  0.1153  0.0270 -0.0137
    4TAL    C1822988   8.439   7.561   6.851  0.0842  1.2382  0.1720
    4TAL    C1922989   8.544   7.638   6.929 -0.5667 -0.0816  0.0050
    4TAL    C2022990   8.594   7.754   6.843 -0.5232  0.0321 -0.2462
    5HTM    C2122991   8.173   6.974   7.111  0.3653 -0.1902 -0.0088
    5HTM    C2222992   8.098   6.861   7.094  0.6328 -0.3145 -0.3784
    5HTM    C2322993   7.956   6.887   7.089  0.5834 -0.6127 -0.5109
    5HTM    C2422994   7.923   7.018   7.103  0.2784 -0.7158 -0.2426
    5HTM     S322995   8.070   7.121   7.123  0.0269 -0.4419  0.2018
    6TAL    C2522996   7.861   6.772   7.061 -0.1166 -0.5969 -0.5581
    6TAL    C2622997   7.894   6.639   7.123 -0.1464  0.4402 -0.1459
    6TAL    C2722998   7.807   6.529   7.062 -0.2669 -0.4916  0.4198
    6TAL    C2822999   7.833   6.401   7.130  0.0460  0.5695  0.5034
    6TAL    C2923000   7.721   6.304   7.110 -0.3391  0.0103  0.1495
    6TAL    C3023001   7.744   6.168   7.180 -0.1526 -0.3779 -0.2807
    7HTM    C3123002   7.797   7.088   7.094  0.0179 -0.0085  0.2427
    7HTM    C3223003   7.671   7.048   7.130 -0.0880 -0.1345 -0.2611
    7HTM    C3323004   7.573   7.154   7.124 -0.2105 -0.2742 -0.8254
    7HTM    C3423005   7.624   7.274   7.084 -0.1981 -0.2557 -0.7518
    7HTM     S423006   7.800   7.263   7.050 -0.0294 -0.0576  0.0420
    8TAL    C3523007   7.432   7.117   7.158 -0.1738 -0.3286  0.4918
    8TAL    C3623008   7.390   7.057   7.295 -0.0314  0.2520 -0.2100
    8TAL    C3723009   7.241   7.068   7.315  0.5521 -0.8674 -0.0719
    8TAL    C3823010   7.147   6.975   7.240  0.3175 -0.2027 -0.0283
    8TAL    C3923011   7.000   7.009   7.244  0.0641 -0.1807  0.2880
    8TAL    C4023012   6.946   7.023   7.390  0.4506 -0.2307  0.4666
    9HTM    C4123013   7.569   7.408   7.082 -0.0125  0.0600 -0.1158
    9HTM    C4223014   7.488   7.466   7.175 -0.4055 -0.0570 -0.3822
    9HTM    C4323015   7.452   7.602   7.143 -0.4303 -0.0813 -0.4597
    9HTM    C4423016   7.505   7.648   7.026 -0.0558  0.0172 -0.2525
    9HTM     S523017   7.606   7.521   6.946  0.3603  0.1491  0.0590
   10TAL    C4523018   7.374   7.677   7.253 -0.1005 -0.5533 -0.2626
   10TAL    C4623019   7.298   7.808   7.225 -0.2147  0.5734 -0.6283
   10TAL    C4723020   7.251   7.898   7.339  0.1383  0.2304 -0.7613
   10TAL    C4823021   7.357   7.955   7.436 -0.0220 -0.4486  0.8420
   10TAL    C4923022   7.443   8.064   7.375  0.0378 -0.2089  0.3087
   10TAL    C5023023   7.554   8.106   7.479  0.0079 -0.2743 -0.4313
   11HTM    C5123024   7.500   7.780   6.963 -0.0626 -0.2849  0.2628
   11HTM    C5223025   7.589   7.883   6.966 -0.1495 -0.2205  0.6263
   11HTM    C5323026   7.547   7.997   6.889  0.0439 -0.2210  0.5209
   11HTM    C5423027   7.427   7.981   6.827  0.2784 -0.2857  0.0766
   11HTM     S623028   7.356   7.819   6.861  0.2728 -0.3521 -0.2454
   12TAL    C5523029   7.642   8.116   6.882 -0.0119 -0.5037  0.1580
   12TAL    C5623030   7.789   8.097   6.828 -0.0018 -0.5276  0.6047
   12TAL    C5723031   7.780   8.064   6.675  0.3631  0.0788 -0.1077
   12TAL    C5823032   7.911   8.033   6.601  0.5377  0.0980  0.1100
   12TAL    C5923033   7.900   8.020   6.450  0.8915 -0.0189  0.0370
   12TAL    C6023034   8.034   8.019   6.380  0.1666 -0.7949 -0.5131
   13HTM    C6123035   7.363   8.066   6.731  0.5973 -0.2175 -0.4741
   13HTM    C6223036   7.314   8.022   6.612  0.7808  0.1454 -0.6866
   13HTM    C6323037   7.281   8.128   6.519  0.7105  0.4358 -0.3304
   13HTM    C6423038   7.305   8.252   6.568  0.4729  0.2943  0.1538
   13HTM     S723039   7.372   8.246   6.736  0.3182 -0.2210  0.1972
   14TAL    C6523040   7.221   8.106   6.379  0.1872 -0.1536 -0.2182
   14TAL    C6623041   7.155   7.970   6.356  0.1875 -0.1402  0.1660
   14TAL    C6723042   7.113   7.945   6.206  0.8189 -0.4821 -0.1464
   14TAL    C6823043   7.063   7.805   6.187 -0.4151 -0.1855  0.2148
   14TAL    C6923044   7.075   7.741   6.050 -0.1630 -0.6537  0.4909
   14TAL    C7023045   7.046   7.592   6.051  0.4222  0.0932  0.6917
   15HTM    C7123046   7.297   8.375   6.498  0.1537  0.0326  0.2242
   15HTM    C7223047   7.400   8.446   6.445  0.1769  0.0687  0.3161
   15HTM    C7323048   7.359   8.563   6.372  0.1893 -0.0372  0.1378
   15HTM    C7423049   7.224   8.581   6.370  0.1757 -0.1544 -0.0901
   15HTM     S823050   7.138   8.451   6.461  0.1462 -0.1402 -0.0978
   16TAL    C7523051   7.451   8.642   6.275 -1.1812 -0.1617 -0.3174
   16TAL    C7623052   7.574   8.706   6.337 -0.3769  0.0367 -0.1171
   16TAL    C7723053   7.622   8.834   6.259  0.3008 -0.1861 -0.2279
   16TAL    C7823054   7.549   8.963   6.295 -0.1399 -0.4050  0.2611
   16TAL    C7923055   7.577   9.061   6.180 -0.2391  0.6433  0.3222
   16TAL    C8023056   7.540   9.210   6.209  0.2291  0.0404  0.2245
   17HTM    C8123057   7.150   8.690   6.315  0.1211 -0.3940 -0.1472
   17HTM    C8223058   7.159   8.826   6.308  0.7026 -0.4430 -0.4132
   17HTM    C8323059   7.046   8.889   6.245  0.9675 -0.0820 -0.5317
   17HTM    C8423060   6.951   8.801   6.203  0.5880  0.2431 -0.3560
   17HTM     S923061   6.996   8.630   6.240 -0.1389  0.1157 -0.0247
   18TAL    C8523062   7.046   9.038   6.209  0.4947 -0.0896 -0.2566
   18TAL    C8623063   7.138   9.132   6.292 -0.2142 -0.2331  0.4219
   18TAL    C8723064   7.153   9.270   6.235 -0.1016 -0.5126  0.2483
   18TAL    C8823065   7.254   9.366   6.307  0.2393 -0.6912 -0.0768
   18TAL    C8923066   7.217   9.401   6.446 -0.5910  0.0150  0.3447
   18TAL    C9023067   7.329   9.433   6.549  0.4239 -0.0898  0.1817
   19HTM    C9123068   6.827   8.817   6.127  0.2870  0.3550 -0.4742
   19HTM    C9223069   6.703   8.852   6.170  0.4692  0.8516 -0.3471
   19HTM    C9323070   6.598   8.821   6.077  0.2227  1.0524 -0.1395
   19HTM    C9423071   6.643   8.762   5.962 -0.1477  0.7086 -0.1087
   19HTM    S1023072   6.822   8.741   5.964 -0.2137  0.1009 -0.3412
   20TAL    C9523073   6.449   8.860   6.096  0.2159 -0.5737  0.5871
   20TAL    C9623074   6.430   8.994   6.156  0.1442 -0.1063 -0.7640
   20TAL    C9723075   6.292   9.014   6.226 -0.4237  0.2978 -0.6637
   20TAL    C9823076   6.306   8.956   6.369  0.1263  0.7116  0.0973
   20TAL    C9923077   6.182   8.907   6.430 -0.3741  0.1903  0.1496
   20TAL   C10023078   6.117   8.785   6.361 -0.1346  0.0695  0.2057
   21HTM   C10123079   6.571   8.701   5.851  0.0553 -0.3226  0.0240
   21HTM   C10223080   6.588   8.720   5.717  0.4444 -0.8678 -0.0098
   21HTM   C10323081   6.497   8.643   5.636  0.5019 -0.9961  0.0474
   21HTM   C10423082   6.411   8.566   5.709  0.1568 -0.5490  0.1248
   21HTM    S1123083   6.439   8.584   5.886 -0.2708  0.0733  0.1313
   22TAL   C10523084   6.511   8.650   5.486 -0.4385 -0.0608 -0.3484
   22TAL   C10623085   6.616   8.560   5.417  0.0706  0.2862 -0.1184
   22TAL   C10723086   6.627   8.414   5.469 -0.0893 -0.1972 -0.3025
   22TAL   C10823087   6.747   8.353   5.390  0.8580 -0.0095  0.1674
   22TAL   C10923088   6.887   8.400   5.436 -0.0095  0.1078 -0.5203
   22TAL   C11023089   6.994   8.314   5.373  0.1941  0.4556  0.2585
   23HTM   C11123090   6.308   8.472   5.669 -0.1867 -0.1187 -0.2112
   23HTM   C11223091   6.295   8.343   5.712 -0.0796 -0.1345 -0.2263
   23HTM   C11323092   6.190   8.270   5.645 -0.0186 -0.2131 -0.2353
   23HTM   C11423093   6.124   8.343   5.551 -0.0785 -0.2576 -0.2269
   23HTM    S1223094   6.189   8.511   5.540 -0.2183 -0.2026 -0.2072
   24TAL   C11523095   6.170   8.123   5.670  0.2799 -0.3277  0.9746
   24TAL   C11623096   6.261   8.022   5.602 -0.7142  0.3307  0.3425
   24TAL   C11723097   6.321   8.035   5.464  0.3851  0.4022  0.0351
   24TAL   C11823098   6.232   8.048   5.346 -0.4780 -0.8091 -0.1376
   24TAL   C11923099   6.179   7.922   5.284  0.4876  0.1308  0.1287
   24TAL   C12023100   6.068   7.946   5.181 -0.3509 -0.4967 -0.3885
   25HTM   C12123101   6.017   8.317   5.458  0.2202 -0.3109 -0.0300
   25HTM   C12223102   6.028   8.337   5.324  0.0296 -0.2580 -0.0386
   25HTM   C12323103   5.904   8.326   5.252 -0.1483  0.2017  0.1915
   25HTM   C12423104   5.797   8.296   5.332 -0.0932  0.4992  0.3755
   25HTM    S1323105   5.846   8.281   5.505  0.1896  0.2199  0.2721
   26TAL   C12523106   5.911   8.304   5.099  1.3809  0.5353  0.2370
   26TAL   C12623107   6.030   8.347   5.016 -0.2489  0.0596  0.0501
   26TAL   C12723108   6.089   8.489   5.024  0.1885 -0.2982  0.5012
   26TAL   C12823109   6.208   8.506   4.935  0.0212 -0.2815 -0.1001
   26TAL   C12923110   6.248   8.652   4.924  0.0476  0.0226 -0.3796
   26TAL   C13023111   6.364   8.677   4.829  0.1655 -0.5149  0.0186
   27HTM   C13123112   5.657   8.280   5.297  0.1641  0.2720 -0.2480
   27HTM   C13223113   5.563   8.376   5.318  0.1404  0.2203 -0.1175
   27HTM   C13323114   5.430   8.337   5.282  0.0906  0.1016  0.1879
   27HTM   C13423115   5.422   8.210   5.232  0.0761  0.0623  0.2908
   27HTM    S1423116   5.583   8.130   5.228  0.1244  0.1739  0.0072
   28TAL   C13523117   5.318   8.447   5.309  0.2233  0.1721  0.5610
   28TAL   C13623118   5.175   8.433   5.256 -0.2851 -0.3185  0.3192
   28TAL   C13723119   5.151   8.491   5.117 -0.9144  0.0901 -0.7785
   28TAL   C13823120   5.010   8.464   5.066  0.2434 -0.1878 -0.8683
   28TAL   C13923121   5.006   8.487   4.920  0.6220  0.2705 -0.2732
   28TAL   C14023122   4.868   8.450   4.869 -0.1476 -0.0039  0.0911
   29HTM   C14123123   5.318   8.138   5.166  0.3369  0.0378  0.0263
   29HTM   C14223124   5.222   8.070   5.235  0.3970  0.3042  0.3726
   29HTM   C14323125   5.110   8.030   5.155  0.0978  0.4163  0.7303
   29HTM   C14423126   5.120   8.067   5.024 -0.1903  0.2343  0.6555
   29HTM    S1523127   5.273   8.156   4.992 -0.1056 -0.0945  0.1248
   30TAL   C14523128   4.986   7.957   5.213 -0.7750  0.7604 -0.8914
   30TAL   C14623129   4.998   7.810   5.242 -0.0469 -0.2916 -0.3400
   30TAL   C14723130   4.943   7.706   5.140 -0.2253  0.1080 -0.2950
   30TAL   C14823131   4.999   7.708   4.994  0.2572 -0.7725  0.1499
   30TAL   C14923132   4.928   7.610   4.897  0.1937 -0.3565  0.0355
   30TAL   C15023133   4.946   7.644   4.747 -0.1547 -0.0862 -0.1568
   31HTM   C15123134   5.034   8.048   4.910 -0.0119  0.0558 -0.1363
   31HTM   C15223135   5.073   8.030   4.781 -0.2232 -0.1106 -0.1795
   31HTM   C15323136   4.964   8.006   4.690 -0.3815 -0.1225  0.0122
   31HTM   C15423137   4.842   8.005   4.750 -0.2910  0.0356  0.2008
   31HTM    S1623138   4.855   8.035   4.927  0.0037  0.2120  0.1510
   32TAL   C15523139   4.984   7.986   4.538  0.2475  0.0525 -0.2394
   32TAL   C15623140   5.098   7.896   4.475  0.4895 -0.5250  0.2008
   32TAL   C15723141   5.240   7.938   4.506 -0.2649 -0.2129 -0.3957
   32TAL   C15823142   5.332   7.837   4.439  0.5738  0.3027 -0.5472
   32TAL   C15923143   5.461   7.895   4.394 -0.1765 -0.1569 -0.3489
   32TAL   C16023144   5.549   7.794   4.312  0.6143 -0.2484  0.3751
   33HTM   C16123145   4.704   8.002   4.699 -0.2402  0.1608  0.0673
   33HTM   C16223146   4.616   8.102   4.673 -0.2911  0.1087  0.0403
   33HTM   C16323147   4.493   8.057   4.613 -0.2632  0.0319  0.0415
   33HTM   C16423148   4.488   7.922   4.593 -0.1907  0.0250  0.0690
   33HTM    S1723149   4.639   7.841   4.650 -0.1519  0.1165  0.0965
   34TAL   C16523150   4.383   8.154   4.569  0.2572 -0.6086  0.2872
   34TAL   C16623151   4.406   8.226   4.435 -0.2267 -0.6223  0.1414
   34TAL   C16723152   4.281   8.290   4.365 -0.3006 -0.1210 -0.4636
   34TAL   C16823153   4.152   8.210   4.361 -0.2254 -0.1931 -0.2247
   34TAL   C16923154   4.050   8.271   4.267  1.0978 -0.8339 -0.3329
   34TAL   C17023155   3.908   8.225   4.310 -0.1207 -0.5418  0.5414
   35HTM   C17123156   4.393   7.826   4.530 -0.2236 -0.0343  0.0113
   35HTM   C17223157   4.417   7.700   4.484 -0.2792 -0.1886  0.4027
   35HTM   C17323158   4.305   7.642   4.415 -0.2818 -0.3304  0.5252
   35HTM   C17423159   4.196   7.723   4.408 -0.2282 -0.2838  0.2270
   35HTM    S1823160   4.226   7.881   4.489 -0.1699 -0.0558 -0.2351
   36TAL   C17523161   4.319   7.503   4.359 -0.0392  0.0899  0.1459
   36TAL   C17623162   4.303   7.391   4.464  0.4738  0.3209  0.3671
   36TAL   C17723163   4.346   7.250   4.424 -0.4263  1.2085  0.1239
   36TAL   C17823164   4.284   7.195   4.294  0.6816 -0.1034  0.0735
   36TAL   C17923165   4.135   7.217   4.267  0.2710 -0.6850  0.4520
   36TAL   C18023166   4.087   7.155   4.140 -0.2920  0.1534  0.5444
   37HTM   C18123167   4.062   7.716   4.341  0.1722  0.2388 -0.3536
   37HTM   C18223168   3.978   7.818   4.309  0.3467  0.2382 -0.8144
   37HTM   C18323169   3.862   7.777   4.234  0.3318  0.1152 -0.7234
   37HTM   C18423170   3.857   7.643   4.209  0.1458  0.0220 -0.1932
   37HTM    S1923171   4.000   7.558   4.279 -0.0260  0.0831  0.2360
   38TAL   C18523172   3.752   7.874   4.186 -0.3998  0.2575 -0.6749
   38TAL   C18623173   3.647   7.898   4.294  0.2767  0.8641  0.3051
   38TAL   C18723174   3.564   8.020   4.271 -0.2796 -0.3877 -0.2648
   38TAL   C18823175   3.459   7.997   4.157  0.1368  0.1820 -0.3506
   38TAL   C18923176   3.355   7.887   4.155  0.4162 -0.8155  0.3945
   38TAL   C19023177   3.290   7.845   4.283 -0.6160  0.3330  0.4327
   39HTM   C19123178   3.760   7.557   4.145 -0.0781 -0.1206  0.0320
   39HTM   C19223179   3.783   7.441   4.078 -0.4159 -0.3700  0.3417
   39HTM   C19323180   3.664   7.375   4.032 -0.6102 -0.1655  0.5538
   39HTM   C19423181   3.549   7.441   4.065 -0.4206  0.2403  0.4063
   39HTM    S2023182   3.583   7.593   4.156  0.0217  0.3968 -0.0158
   40TAL   C19523183   3.675   7.242   3.964 -0.2434 -0.0528  1.1650
   40TAL   C19623184   3.782   7.199   3.858  0.4297 -0.0215 -0.1670
   40TAL   C19723185   3.776   7.056   3.797 -0.2903  0.0500 -0.6772
   40TAL   C19823186   3.761   6.937   3.889 -0.2305  0.3348  0.1443
   40TAL   C19923187   3.873   6.893   3.976  0.1370 -0.6478  0.5082
   40TAL   C20023188   3.842   6.756   4.040  0.3142 -0.4123  0.4607
   41HTM   C20123189   3.404   7.403   4.039 -0.2887 -0.2648  0.3052
   41HTM   C20223190   3.295   7.480   4.063 -0.3721 -0.3519  0.2067
   41HTM   C20323191   3.170   7.417   4.028 -0.2894 -0.4480  0.0861
   41HTM   C20423192   3.185   7.291   3.978 -0.1434 -0.4339  0.0926
   41HTM    S2123193   3.359   7.243   3.971 -0.0982 -0.2971  0.2529
   42TAL   C20523194   3.034   7.486   4.032  0.5782 -0.9237 -0.7441
   42TAL   C20623195   2.991   7.548   4.167 -0.0315 -0.4481  0.3142
   42TAL   C20723196   2.979   7.441   4.277  0.6791  0.2714 -0.3416
   42TAL   C20823197   2.870   7.328   4.251 -0.6408  0.0578  0.0421
   42TAL   C20923198   2.869   7.209   4.346 -0.0067 -0.4877 -0.1240
   42TAL   C21023199   2.786   7.089   4.318  0.4402  0.0391 -0.3618
   43HTM   C21123200   3.094   7.183   3.945 -0.2069  0.0843 -0.0749
   43HTM   C21223201   3.102   7.053   3.985  0.0615 -0.0370 -0.5137
   43HTM   C21323202   2.986   6.975   3.950  0.1665 -0.1256 -0.6639
   43HTM   C21423203   2.890   7.046   3.883 -0.0215 -0.0724 -0.3396
   43HTM    S2223204   2.940   7.217   3.860 -0.3486  0.0953  0.1844
   44TAL   C21523205   2.984   6.824   3.977  0.7456 -0.5217  0.0999
   44TAL   C21623206   3.031   6.732   3.860  0.6205  0.7092 -0.6028
   44TAL   C21723207   2.957   6.599   3.863 -0.1838 -0.2025 -0.1328
   44TAL   C21823208   3.007   6.493   3.766 -1.0673  0.0678  0.4712
   44TAL   C21923209   2.900   6.388   3.760 -0.3366  0.8757 -0.5860
   44TAL   C22023210   2.958   6.271   3.688  0.0042 -0.2435  0.0177
   45HTM   C22123211   2.766   6.999   3.820 -0.2778  0.4199  0.4119
   45HTM   C22223212   2.701   7.051   3.712 -0.3719  0.5832  0.5472
   45HTM   C22323213   2.582   6.979   3.676 -0.1823  0.3982  0.2929
   45HTM   C22423214   2.557   6.871   3.756  0.0562  0.0938 -0.0365
   45HTM    S2323215   2.682   6.853   3.884  0.0601  0.0164 -0.0509
   46TAL   C22523216   2.490   7.032   3.560  0.4303 -0.0544  0.3196
   46TAL   C22623217   2.442   7.170   3.572  0.0802 -0.2609  0.3490
   46TAL   C22723218   2.340   7.199   3.685  0.3466  0.6895  0.2501
   46TAL   C22823219   2.206   7.132   3.665 -0.5175  0.1669  0.4718
   46TAL   C22923220   2.102   7.193   3.755  0.1318  0.0947  0.1356
   46TAL   C23023221   1.961   7.152   3.725 -0.0802 -0.2020 -0.1729
   47HTM   C23123222   2.462   6.763   3.756  0.1373  0.0101  0.3434
   47HTM   C23223223   2.493   6.632   3.774  0.1588 -0.0510 -0.1339
   47HTM   C23323224   2.379   6.544   3.766  0.1476 -0.0229 -0.2824
   47HTM   C23423225   2.261   6.609   3.742  0.1175  0.0596  0.0813
   47HTM    S2423226   2.286   6.787   3.727  0.1009  0.1085  0.6444
   48TAL   C23523227   2.398   6.395   3.779 -0.6805  0.2812 -0.3410
   48TAL   C23623228   2.296   6.294   3.722 -0.0194 -0.2410  0.4772
   48TAL   C23723229   2.265   6.278   3.575  0.2280  0.0116 -0.2047
   48TAL   C23823230   2.138   6.191   3.546  0.6409  0.0302  0.4641
   48TAL   C23923231   2.021   6.196   3.638  0.0427  0.8835  0.2042
   48TAL   C24023232   1.898   6.121   3.597  0.6703  0.3621 -0.2585
    1HTM     C123233   0.747   0.095   4.269  0.2637  0.2109 -0.5052
    1HTM     C223234   0.826   0.153   4.365  0.2199  0.1874 -0.4551
    1HTM     C323235   0.886   0.059   4.456  0.1076  0.1723 -0.3965
    1HTM     C423236   0.853  -0.071   4.430  0.0658  0.1838 -0.4020
    1HTM     S123237   0.744  -0.085   4.288  0.1658  0.2154 -0.4823
    2TAL     C523238   0.970   0.116   4.567 -0.2892 -0.2537  0.6712
    2TAL     C623239   1.101   0.182   4.524  0.3226  0.0595  0.2220
    2TAL     C723240   1.181   0.266   4.622 -0.5898  0.4968  0.0931
    2TAL     C823241   1.104   0.379   4.677  0.2192 -0.4075  0.2151
    2TAL     C923242   1.194   0.433   4.786  0.0734 -0.1671 -0.0839
    2TAL    C1023243   1.143   0.564   4.841 -0.1450 -0.0250  0.5865
    3HTM    C1123244   0.875  -0.191   4.509  0.5172 -0.0401 -0.4430
    3HTM    C1223245   0.806  -0.309   4.503  0.3624  0.0429 -0.2911
    3HTM    C1323246   0.870  -0.417   4.575  0.0734  0.1254  0.0925
    3HTM    C1423247   0.987  -0.381   4.635  0.0078  0.1049  0.2333
    3HTM     S223248   1.027  -0.208   4.605  0.3084 -0.0211 -0.1107
    4TAL    C1523249   0.798  -0.553   4.575 -0.2461  0.7978 -0.3261
    4TAL    C1623250   0.677  -0.588   4.489  0.4865 -0.0134  0.2717
    4TAL    C1723251   0.608  -0.722   4.496  0.8287  0.2617 -0.4210
    4TAL    C1823252   0.471  -0.746   4.428 -0.5896  0.0269 -0.1793
    4TAL    C1923253   0.420  -0.878   4.472 -0.1400 -0.4905 -0.1256
    4TAL    C2023254   0.282  -0.899   4.417  0.2896  0.4631  0.1942
    5HTM    C2123255   1.087  -0.464   4.700  0.5832 -0.0710 -0.0948
    5HTM    C2223256   1.211  -0.426   4.741  0.6504 -0.4778  0.0818
    5HTM    C2323257   1.288  -0.533   4.800  0.0649 -0.6347  0.5713
    5HTM    C2423258   1.222  -0.652   4.803 -0.4488 -0.3482  0.7679
    5HTM     S323259   1.057  -0.639   4.732 -0.2312  0.1463  0.3472
    6TAL    C2523260   1.425  -0.495   4.858 -0.6915  0.1599  0.1441
    6TAL    C2623261   1.424  -0.432   4.995  0.0112  0.1430 -0.3764
    6TAL    C2723262   1.563  -0.388   5.041  0.0194 -0.4924  0.2937
    6TAL    C2823263   1.561  -0.314   5.174  0.4662 -0.1700  0.3646
    6TAL    C2923264   1.673  -0.207   5.186 -0.2911 -0.0378  0.0389
    6TAL    C3023265   1.663  -0.122   5.307  0.1476  0.4930 -0.4961
    7HTM    C3123266   1.262  -0.787   4.848  0.1525  0.1928 -0.5726
    7HTM    C3223267   1.179  -0.892   4.868 -0.0798  0.3562 -0.6738
    7HTM    C3323268   1.246  -1.014   4.907 -0.3711  0.2456 -0.5040
    7HTM    C3423269   1.382  -1.000   4.915 -0.3610 -0.0022 -0.2733
    7HTM     S423270   1.434  -0.832   4.876  0.0204 -0.1157 -0.2523
    8TAL    C3523271   1.159  -1.136   4.936  0.2638  0.1685  0.3373
    8TAL    C3623272   1.090  -1.212   4.822 -0.1445  0.1787  0.1150
    8TAL    C3723273   1.170  -1.268   4.704  0.6851 -0.7066 -0.0045
    8TAL    C3823274   1.259  -1.387   4.740 -0.3604 -0.0962 -0.9267
    8TAL    C3923275   1.344  -1.439   4.628 -0.2578  0.7368  0.3143
    8TAL    C4023276   1.454  -1.547   4.653 -0.0310  0.2455 -1.0053
    9HTM    C4123277   1.486  -1.102   4.944  0.0678 -0.3697 -0.5683
    9HTM    C4223278   1.618  -1.085   4.916 -0.0179 -0.3929 -0.9904
    9HTM    C4323279   1.697  -1.205   4.932  0.1013 -0.2820 -0.7443
    9HTM    C4423280   1.624  -1.313   4.973  0.2777 -0.1746 -0.1342
    9HTM     S523281   1.449  -1.271   4.994  0.3074 -0.2053  0.1790
   10TAL    C4523282   1.846  -1.204   4.905 -0.5417 -0.5930  0.7615
   10TAL    C4623283   1.883  -1.187   4.754  0.9320  0.2624 -0.1436
   10TAL    C4723284   1.810  -1.262   4.640 -0.1046  0.3251  0.6634
   10TAL    C4823285   1.813  -1.419   4.656  0.5816 -0.0996  0.0193
   10TAL    C4923286   1.941  -1.486   4.609  0.2019 -0.2224  0.0382
   10TAL    C5023287   1.951  -1.636   4.643 -0.2543 -0.2317  0.6871
   11HTM    C5123288   1.657  -1.450   5.003  0.4182  0.1246 -0.0311
   11HTM    C5223289   1.568  -1.545   5.044  0.0858  0.2668 -0.4125
   11HTM    C5323290   1.629  -1.672   5.073 -0.3036  0.0465 -0.5603
   11HTM    C5423291   1.764  -1.674   5.053 -0.2682 -0.2637 -0.2922
   11HTM     S623292   1.825  -1.514   4.997  0.2639 -0.3015  0.1724
   12TAL    C5523293   1.543  -1.789   5.117 -0.5217 -0.0657 -0.0080
   12TAL    C5623294   1.390  -1.802   5.089 -0.0377  0.1423  0.4560
   12TAL    C5723295   1.304  -1.713   5.181 -1.1773 -0.5843 -0.5090
   12TAL    C5823296   1.323  -1.743   5.329  0.1743 -0.3185 -0.2878
   12TAL    C5923297   1.269  -1.644   5.438  0.3272 -0.0382  0.7047
   12TAL    C6023298   1.121  -1.624   5.449 -0.0604  0.1053  0.3799
   13HTM    C6123299   1.863  -1.778   5.080  0.0176 -0.0393  0.2089
   13HTM    C6223300   1.994  -1.769   5.044 -0.0680 -0.1957 -0.1390
   13HTM    C6323301   2.071  -1.886   5.073 -0.2064 -0.4218 -0.6597
   13HTM    C6423302   1.999  -1.986   5.133 -0.2259 -0.4374 -0.7093
   13HTM     S723303   1.826  -1.937   5.156 -0.0702 -0.1659 -0.0972
   14TAL    C6523304   2.222  -1.899   5.048  0.3907  0.4506 -0.4237
   14TAL    C6623305   2.287  -1.785   4.990 -0.7863  0.0528  0.9659
   14TAL    C6723306   2.349  -1.687   5.099 -0.1291  0.1560 -0.2747
   14TAL    C6823307   2.297  -1.538   5.095 -0.1108 -0.2466  0.1322
   14TAL    C6923308   2.328  -1.457   4.969  0.0268 -0.0337  0.5395
   14TAL    C7023309   2.235  -1.337   4.963 -0.1644 -0.4515  1.1247
   15HTM    C7123310   2.038  -2.115   5.177  0.2957  0.1995  0.1972
   15HTM    C7223311   2.037  -2.164   5.304 -0.1291 -0.0162  0.1132
   15HTM    C7323312   2.085  -2.299   5.315 -0.3741 -0.1116  0.0157
   15HTM    C7423313   2.123  -2.353   5.195 -0.1363  0.0312  0.0253
   15HTM     S823314   2.100  -2.237   5.059  0.4201  0.2994  0.1593
   16TAL    C7523315   2.071  -2.366   5.450 -0.4009  0.6838  0.2335
   16TAL    C7623316   2.202  -2.425   5.504 -0.1541 -0.4847 -0.3270
   16TAL    C7723317   2.195  -2.472   5.647 -0.0585  0.0517  0.4162
   16TAL    C7823318   2.073  -2.544   5.718 -0.2318  0.3847 -0.4082
   16TAL    C7923319   2.009  -2.662   5.645 -0.0305  0.0149 -0.2567
   16TAL    C8023320   1.880  -2.717   5.710 -0.0319 -0.6495  0.1268
   17HTM    C8123321   2.179  -2.483   5.163 -0.1999 -0.0612 -0.4633
   17HTM    C8223322   2.125  -2.607   5.177 -0.1528 -0.0978 -0.6006
   17HTM    C8323323   2.216  -2.714   5.145  0.0012 -0.0367 -0.3700
   17HTM    C8423324   2.339  -2.672   5.107  0.0717  0.0464 -0.0565
   17HTM     S923325   2.351  -2.492   5.108 -0.0520  0.0539 -0.0285
   18TAL    C8523326   2.172  -2.855   5.157  0.1687  0.0940  0.0721
   18TAL    C8623327   2.096  -2.929   5.050  0.0757  0.1581  0.1490
   18TAL    C8723328   2.166  -2.935   4.918 -0.3840  0.0870  0.9893
   18TAL    C8823329   2.130  -3.056   4.841 -0.2360  0.3862 -0.1792
   18TAL    C8923330   2.200  -3.061   4.705  0.4296  0.3437  0.1070
   18TAL    C9023331   2.196  -3.201   4.646 -0.3183  0.9172  0.4343
   19HTM    C9123332   2.462  -2.734   5.060 -0.1034 -0.2553  0.2309
   19HTM    C9223333   2.482  -2.866   5.032  0.0542 -0.2732  0.4261
   19HTM    C9323334   2.613  -2.895   4.980  0.0697 -0.1853  0.4160
   19HTM    C9423335   2.693  -2.785   4.969 -0.0761 -0.1002  0.2136
   19HTM    S1023336   2.608  -2.635   5.023 -0.2457 -0.1251  0.0175
   20TAL    C9523337   2.647  -3.040   4.961  0.4401  0.0095  0.2692
   20TAL    C9623338   2.550  -3.128   4.876 -0.2050  0.0999 -0.6583
   20TAL    C9723339   2.594  -3.270   4.903 -0.4673  0.1568  0.2392
   20TAL    C9823340   2.536  -3.367   4.800 -0.2129 -0.2596 -0.0890
   20TAL    C9923341   2.585  -3.512   4.808 -0.1161  0.3453 -0.0052
   20TAL   C10023342   2.572  -3.573   4.949  0.2117 -0.5895  0.0907
   21HTM   C10123343   2.833  -2.769   4.925 -0.2161 -0.0853 -0.1894
   21HTM   C10223344   2.896  -2.824   4.818 -0.1435 -0.0565 -0.1614
   21HTM   C10323345   3.025  -2.766   4.791 -0.0731 -0.1297  0.0136
   21HTM   C10423346   3.060  -2.667   4.877 -0.0921 -0.2144  0.1191
   21HTM    S1123347   2.931  -2.638   5.001 -0.2011 -0.2083  0.0049
   22TAL   C10523348   3.099  -2.822   4.665 -0.1387 -0.0261 -0.7162
   22TAL   C10623349   3.133  -2.721   4.550  0.9695 -0.4329 -0.6421
   22TAL   C10723350   3.230  -2.773   4.452 -0.0750 -0.3210 -0.3619
   22TAL   C10823351   3.375  -2.785   4.505 -0.6869  0.4866  0.0328
   22TAL   C10923352   3.460  -2.877   4.416  0.6001  0.4874  0.6528
   22TAL   C11023353   3.428  -3.023   4.410  0.3344  0.5679  0.2599
   23HTM   C11123354   3.173  -2.577   4.886 -0.3576 -0.0468 -0.4917
   23HTM   C11223355   3.169  -2.442   4.898 -0.4928 -0.0577 -0.4168
   23HTM   C11323356   3.298  -2.378   4.881 -0.4945  0.0510 -0.0389
   23HTM   C11423357   3.399  -2.465   4.855 -0.3602  0.1453  0.1747
   23HTM    S1223358   3.341  -2.636   4.851 -0.2205  0.1026 -0.0875
   24TAL   C11523359   3.323  -2.235   4.908  0.4931 -0.1069  0.3757
   24TAL   C11623360   3.279  -2.174   5.043  0.2271 -0.0570  0.3617
   24TAL   C11723361   3.334  -2.037   5.062 -0.0876 -0.9224  0.0838
   24TAL   C11823362   3.479  -2.024   5.112 -0.1812 -0.7374  0.2311
   24TAL   C11923363   3.506  -1.892   5.175 -0.4491 -0.0306 -0.7993
   24TAL   C12023364   3.651  -1.869   5.217 -0.2839 -0.0083 -0.4495
   25HTM   C12123365   3.539  -2.459   4.810 -0.1178  0.0516  0.0978
   25HTM   C12223366   3.599  -2.558   4.737 -0.3195  0.2308 -0.3202
   25HTM   C12323367   3.740  -2.540   4.720 -0.3719  0.2885 -0.6993
   25HTM   C12423368   3.789  -2.427   4.779 -0.2104  0.1535 -0.5706
   25HTM    S1323369   3.658  -2.334   4.862  0.0224 -0.0594  0.0438
   26TAL   C12523370   3.824  -2.652   4.646  0.0762  0.0965 -0.5246
   26TAL   C12623371   3.775  -2.793   4.604 -0.2778  0.0407 -0.1098
   26TAL   C12723372   3.876  -2.886   4.548  0.0570  0.6682  0.8119
   26TAL   C12823373   3.829  -3.023   4.503 -0.3099  0.7318  0.2232
   26TAL   C12923374   3.763  -3.125   4.603 -0.2240 -0.3414 -0.1333
   26TAL   C13023375   3.843  -3.132   4.735 -0.3054 -0.0594  0.0651
   27HTM   C13123376   3.926  -2.387   4.806  0.0586 -0.2787  0.4276
   27HTM   C13223377   4.044  -2.445   4.768  0.0925 -0.3803  0.6902
   27HTM   C13323378   4.160  -2.369   4.805  0.0477 -0.1352  0.3302
   27HTM   C13423379   4.132  -2.253   4.871 -0.0202  0.1532 -0.2071
   27HTM    S1423380   3.954  -2.231   4.891 -0.0328  0.1380 -0.3003
   28TAL   C13523381   4.299  -2.415   4.767  0.0921 -0.4684 -0.3011
   28TAL   C13623382   4.304  -2.540   4.673  0.3751 -0.5192 -0.2802
   28TAL   C13723383   4.441  -2.601   4.678 -0.1478 -0.2817 -0.2594
   28TAL   C13823384   4.446  -2.728   4.594  0.4848 -0.3970  0.2555
   28TAL   C13923385   4.576  -2.806   4.602 -0.2517  0.1291 -0.0328
   28TAL   C14023386   4.561  -2.941   4.520 -0.8547 -0.2072 -0.6059
   29HTM   C14123387   4.219  -2.146   4.920 -0.1040  0.3189 -0.2416
   29HTM   C14223388   4.189  -2.048   5.009 -0.1323  0.6769 -0.6392
   29HTM   C14323389   4.298  -1.956   5.034 -0.0339  0.5825 -0.7231
   29HTM   C14423390   4.411  -1.985   4.963  0.0696  0.1527 -0.3893
   29HTM    S1523391   4.388  -2.130   4.859  0.0506 -0.1685  0.0595
   30TAL   C14523392   4.268  -1.836   5.124 -0.4710 -0.3335  0.4774
   30TAL   C14623393   4.282  -1.863   5.272 -0.3483  0.6838  0.0270
   30TAL   C14723394   4.242  -1.744   5.361  0.0315  0.4813  0.6680
   30TAL   C14823395   4.329  -1.625   5.326  0.1422  0.2016 -1.1455
   30TAL   C14923396   4.300  -1.511   5.421 -0.7468 -0.3480 -0.7837
   30TAL   C15023397   4.389  -1.401   5.375  0.4383 -0.0027 -0.2898
   31HTM   C15123398   4.537  -1.918   4.963  0.3221 -0.0607  0.0015
   31HTM   C15223399   4.621  -1.900   4.857  0.8304 -0.7041  0.2940
   31HTM   C15323400   4.751  -1.851   4.894  0.8051 -0.9081  0.6621
   31HTM   C15423401   4.766  -1.830   5.028  0.2779 -0.4200  0.6499
   31HTM    S1623402   4.616  -1.872   5.119 -0.2322  0.3405  0.1695
   32TAL   C15523403   4.846  -1.809   4.774 -0.0876  0.1701  0.0485
   32TAL   C15623404   4.985  -1.752   4.801 -0.6446 -0.2849  0.4787
   32TAL   C15723405   5.085  -1.869   4.820 -0.4989  0.1872 -0.0171
   32TAL   C15823406   5.228  -1.829   4.855 -0.4752  0.6664 -0.1403
   32TAL   C15923407   5.250  -1.737   4.973 -0.5795 -0.1812 -0.1960
   32TAL   C16023408   5.396  -1.738   5.011  0.0692 -0.4910  0.6585
   33HTM   C16123409   4.880  -1.808   5.106  0.3152 -0.1743 -0.4529
   33HTM   C16223410   4.951  -1.905   5.170  0.3624 -0.2587 -0.6309
   33HTM   C16323411   5.051  -1.854   5.260  0.1163 -0.3719 -0.2899
   33HTM   C16423412   5.056  -1.718   5.264 -0.1186 -0.3740  0.1482
   33HTM    S1723413   4.934  -1.643   5.154 -0.0469 -0.2318  0.1641
   34TAL   C16523414   5.150  -1.949   5.336  0.0917 -0.0902 -0.4821
   34TAL   C16623415   5.085  -2.054   5.423  0.1098 -0.7186 -0.5840
   34TAL   C16723416   5.072  -2.183   5.339  0.6151 -0.2831  0.0803
   34TAL   C16823417   5.023  -2.306   5.412  0.2922 -0.2089 -0.2229
   34TAL   C16923418   5.005  -2.427   5.326 -0.3739 -0.3826  0.6038
   34TAL   C17023419   4.905  -2.523   5.401 -0.1867  0.0480 -0.1149
   35HTM   C17123420   5.138  -1.621   5.330  0.0727  0.3379  0.0925
   35HTM   C17223421   5.207  -1.520   5.272  0.3548  0.3033  0.3648
   35HTM   C17323422   5.276  -1.435   5.365  0.3839  0.0126  0.6092
   35HTM   C17423423   5.259  -1.471   5.495  0.1241 -0.1755  0.5230
   35HTM    S1823424   5.154  -1.617   5.510 -0.1799  0.0022  0.1236
   36TAL   C17523425   5.357  -1.309   5.327 -0.0296  0.6679 -0.2455
   36TAL   C17623426   5.438  -1.328   5.197 -0.1760 -0.4908 -0.0783
   36TAL   C17723427   5.563  -1.418   5.198 -0.6666  0.2249  0.5086
   36TAL   C17823428   5.671  -1.377   5.298 -0.2801  0.1843  0.5025
   36TAL   C17923429   5.791  -1.466   5.315 -0.4617  0.9520  0.7770
   36TAL   C18023430   5.870  -1.430   5.433  0.2862 -0.1911  0.2261
   37HTM   C18123431   5.312  -1.410   5.612 -0.4160  0.1284 -0.3189
   37HTM   C18223432   5.400  -1.474   5.694 -0.0060  0.0575 -0.8066
   37HTM   C18323433   5.429  -1.403   5.815  0.4804 -0.1166 -0.8185
   37HTM   C18423434   5.364  -1.284   5.826  0.4417 -0.1781 -0.3402
   37HTM    S1923435   5.260  -1.252   5.682 -0.2178 -0.0204  0.1665
   38TAL   C18523436   5.509  -1.464   5.932 -1.1126 -0.3716 -0.7270
   38TAL   C18623437   5.560  -1.605   5.942 -0.4054  0.4831  0.2604
   38TAL   C18723438   5.665  -1.646   5.835  0.3816 -0.2291 -0.7537
   38TAL   C18823439   5.695  -1.797   5.827  0.1545 -1.1671  0.2179
   38TAL   C18923440   5.771  -1.830   5.691 -0.1298 -0.0955 -1.0517
   38TAL   C19023441   5.900  -1.763   5.680  0.0568 -0.3045  0.4353
   39HTM   C19123442   5.355  -1.183   5.936  0.2176  0.0270  0.4659
   39HTM   C19223443   5.449  -1.151   6.029 -0.2391 -0.2303  1.0247
   39HTM   C19323444   5.410  -1.045   6.117 -0.6351 -0.4091  1.0679
   39HTM   C19423445   5.286  -0.995   6.091 -0.4812 -0.2879  0.5413
   39HTM    S2023446   5.208  -1.080   5.953  0.1813  0.0637 -0.0545
   40TAL   C19523447   5.502  -1.007   6.232  0.1926  0.9325 -0.1102
   40TAL   C19623448   5.584  -1.116   6.297 -0.2219 -0.1421 -0.3703
   40TAL   C19723449   5.682  -1.062   6.408 -0.2073 -0.1331 -0.6402
   40TAL   C19823450   5.596  -1.024   6.536 -0.9864  0.3734 -0.2024
   40TAL   C19923451   5.655  -0.937   6.647 -0.1765  0.2498 -0.4617
   40TAL   C20023452   5.776  -0.998   6.724  0.2750  0.4039  0.5696
   41HTM   C20123453   5.205  -0.887   6.148 -0.1603 -0.0594 -0.3806
   41HTM   C20223454   5.070  -0.872   6.146 -0.1299  0.2260 -0.2718
   41HTM   C20323455   5.024  -0.749   6.205  0.1535  0.1674  0.0722
   41HTM   C20423456   5.125  -0.670   6.252  0.3397 -0.1624  0.2261
   41HTM    S2123457   5.286  -0.746   6.226  0.1698 -0.4267 -0.0540
   42TAL   C20523458   4.879  -0.701   6.187 -0.0048  0.4820 -0.0664
   42TAL   C20623459   4.783  -0.790   6.116  0.2849  0.4985  0.7385
   42TAL   C20723460   4.643  -0.733   6.076 -0.2091  0.6396 -0.4155
   42TAL   C20823461   4.576  -0.827   5.974 -0.0314 -0.4897 -0.0521
   42TAL   C20923462   4.447  -0.781   5.908 -0.0714 -0.0458 -0.1860
   42TAL   C21023463   4.337  -0.756   6.010  0.6066  0.0928  0.2327
   43HTM   C21123464   5.122  -0.532   6.298  0.0116 -0.0078  0.1605
   43HTM   C21223465   5.072  -0.486   6.416 -0.0305 -0.2346  0.2325
   43HTM   C21323466   5.117  -0.353   6.450  0.0384 -0.3395  0.5546
   43HTM   C21423467   5.201  -0.298   6.358  0.1334 -0.1923  0.7285
   43HTM    S2223468   5.231  -0.411   6.220  0.1433  0.0919  0.4972
   44TAL   C21523469   5.086  -0.281   6.585 -0.2749  0.3943  1.2309
   44TAL   C21623470   5.044  -0.376   6.702 -0.2940 -0.4088  0.8411
   44TAL   C21723471   5.003  -0.302   6.828 -0.0296 -0.1630 -0.3920
   44TAL   C21823472   4.905  -0.180   6.831  0.3019 -0.1845  0.4643
   44TAL   C21923473   4.764  -0.239   6.807 -0.6085 -0.0094 -0.0144
   44TAL   C22023474   4.647  -0.143   6.840 -0.6611  0.3944 -0.4628
   45HTM   C22123475   5.276  -0.174   6.354 -0.4108  0.0906 -0.0199
   45HTM   C22223476   5.411  -0.163   6.361 -0.3877 -0.1335 -0.1225
   45HTM   C22323477   5.460  -0.029   6.342 -0.1748 -0.2251 -0.2353
   45HTM   C22423478   5.361   0.063   6.322 -0.0358 -0.0705 -0.2185
   45HTM    S2323479   5.198  -0.014   6.325 -0.1638  0.2040 -0.0578
   46TAL   C22523480   5.611  -0.008   6.350  0.2993 -0.4247 -0.2224
   46TAL   C22623481   5.688  -0.026   6.217 -0.2618  0.3282 -0.1184
   46TAL   C22723482   5.833   0.014   6.233  0.0047  0.1142  0.0941
   46TAL   C22823483   5.887   0.071   6.104 -0.7280  0.0582 -0.1794
   46TAL   C22923484   5.837   0.202   6.069 -0.6302 -0.1846  0.4591
   46TAL   C23023485   5.914   0.228   5.947  0.1655  0.1937  0.3829
   47HTM   C23123486   5.360   0.207   6.291 -0.3554 -0.2274  0.1811
   47HTM   C23223487   5.441   0.302   6.344 -0.3955 -0.1876  0.1698
   47HTM   C23323488   5.398   0.437   6.316 -0.3664 -0.2088  0.0238
   47HTM   C23423489   5.284   0.444   6.241 -0.3049 -0.2647 -0.0762
   47HTM    S2423490   5.222   0.279   6.201 -0.2785 -0.2952  0.0067
   48TAL   C23523491   5.474   0.562   6.360 -0.1086  0.0707 -0.5525
   48TAL   C23623492   5.624   0.558   6.385 -0.3883  0.0008  0.0007
   48TAL   C23723493   5.710   0.508   6.279 -0.4901 -0.1590  0.0430
   48TAL   C23823494   5.855   0.452   6.330  0.2288  0.0066  0.2493
   48TAL   C23923495   5.854   0.341   6.439  0.6416  0.2529 -0.1528
   48TAL   C24023496   5.984   0.281   6.477  0.2452  0.1789 -0.5260
    1HTM     C123497   5.474   8.477   2.164  0.1120  0.1969  0.0293
    1HTM     C223498   5.546   8.361   2.158 -0.0827  0.0772 -0.0176
    1HTM     C323499   5.682   8.375   2.204 -0.0381 -0.1550 -0.0756
    1HTM     C423500   5.713   8.501   2.245  0.1903 -0.2121 -0.0728
    1HTM     S123501   5.572   8.613   2.229  0.3684  0.0243  0.0036
    2TAL     C523502   5.784   8.256   2.224 -0.5168 -0.6714  0.1762
    2TAL     C623503   5.738   8.117   2.207 -0.0732  0.2298 -0.2734
    2TAL     C723504   5.677   8.062   2.076 -0.7650 -0.6042 -0.4749
    2TAL     C823505   5.784   8.024   1.977  0.2365 -0.2854 -0.2019
    2TAL     C923506   5.749   7.975   1.840 -0.3852  0.1260 -0.4077
    2TAL    C1023507   5.867   7.908   1.769  0.5140 -1.2017 -0.7627
    3HTM    C1123508   5.836   8.570   2.280  0.2924  0.4613  0.0682
    3HTM    C1223509   5.858   8.680   2.359  0.6776  0.2503  0.2568
    3HTM    C1323510   5.997   8.716   2.370  0.7994 -0.1998  0.2441
    3HTM    C1423511   6.081   8.635   2.300  0.5069 -0.3317  0.0458
    3HTM     S223512   5.990   8.505   2.214  0.0519  0.1052 -0.1419
    4TAL    C1523513   6.045   8.832   2.460  0.6738 -0.1089  0.0446
    4TAL    C1623514   6.003   8.968   2.414 -0.0882 -1.2065  0.0246
    4TAL    C1723515   6.014   9.090   2.508  0.3861 -0.8299  0.4493
    4TAL    C1823516   6.149   9.102   2.583 -0.3116  0.0742 -0.7957
    4TAL    C1923517   6.160   9.216   2.688 -0.2034  0.0998  0.5995
    4TAL    C2023518   6.303   9.214   2.741 -0.6782 -0.2771  0.1042
    5HTM    C2123519   6.226   8.648   2.272  0.0059 -0.3573  0.1058
    5HTM    C2223520   6.318   8.549   2.249  0.1957 -0.1712  0.0596
    5HTM    C2323521   6.452   8.598   2.229  0.0982  0.0982  0.0591
    5HTM    C2423522   6.462   8.734   2.237 -0.1661  0.1173  0.1051
    5HTM     S323523   6.303   8.811   2.271 -0.3135 -0.2066  0.1527
    6TAL    C2523524   6.559   8.505   2.195  0.3013  0.3292  0.2816
    6TAL    C2623525   6.582   8.506   2.045 -0.7994 -0.3118 -0.2315
    6TAL    C2723526   6.707   8.432   1.990 -0.0442  0.5834  0.4075
    6TAL    C2823527   6.838   8.419   2.070 -0.0513 -0.6265 -0.4852
    6TAL    C2923528   6.849   8.290   2.148  0.0694  0.1734 -0.4038
    6TAL    C3023529   6.989   8.272   2.207  0.6932  0.6931  0.0976
    7HTM    C3123530   6.577   8.817   2.224 -0.2725  0.0784 -0.4160
    7HTM    C3223531   6.692   8.815   2.298 -0.6762  0.0553  0.2084
    7HTM    C3323532   6.781   8.925   2.270 -0.6814  0.2656  0.9862
    7HTM    C3423533   6.735   9.010   2.174 -0.2819  0.4492  0.9549
    7HTM     S423534   6.574   8.958   2.111  0.1354  0.3696 -0.0674
    8TAL    C3523535   6.913   8.955   2.342  0.3275  0.1852  0.2776
    8TAL    C3623536   6.938   8.867   2.468 -0.1440 -0.3458  0.1180
    8TAL    C3723537   6.990   8.721   2.442 -0.0587 -0.3751  0.2429
    8TAL    C3823538   7.021   8.631   2.556  0.1025 -0.7589 -0.3396
    8TAL    C3923539   6.913   8.605   2.664 -0.3334 -0.1982 -0.0526
    8TAL    C4023540   6.773   8.558   2.636 -0.2611 -0.0503 -0.2998
    9HTM    C4123541   6.800   9.127   2.121  0.2070 -0.1848  0.2289
    9HTM    C4223542   6.744   9.251   2.118  0.2606 -0.1513  0.6369
    9HTM    C4323543   6.827   9.351   2.056  0.1676 -0.0512  0.6742
    9HTM    C4423544   6.946   9.304   2.011  0.0441 -0.0084  0.2947
    9HTM     S523545   6.964   9.127   2.044  0.0347 -0.0918 -0.1426
   10TAL    C4523546   6.780   9.493   2.039  0.0308 -0.0307 -0.5485
   10TAL    C4623547   6.637   9.525   1.996 -0.0437 -0.0434 -0.1565
   10TAL    C4723548   6.610   9.665   1.949 -0.5195  0.4689  0.0510
   10TAL    C4823549   6.630   9.772   2.048 -0.0004  0.4051 -0.0640
   10TAL    C4923550   6.539   9.772   2.171 -0.5196  0.0130  0.2881
   10TAL    C5023551   6.541   9.899   2.260 -0.4074  0.6868  0.3598
   11HTM    C5123552   7.040   9.362   1.914  0.0533  0.0265  0.0960
   11HTM    C5223553   7.009   9.428   1.799 -0.1457 -0.1033  0.0740
   11HTM    C5323554   7.125   9.466   1.722 -0.2759 -0.1127 -0.1243
   11HTM    C5423555   7.243   9.429   1.778 -0.1760  0.0099 -0.2536
   11HTM     S623556   7.218   9.343   1.934  0.0921  0.1479 -0.1339
   12TAL    C5523557   7.118   9.527   1.587 -0.2163 -0.0024 -0.2092
   12TAL    C5623558   7.053   9.661   1.576 -0.1686 -0.5875  0.4032
   12TAL    C5723559   7.131   9.786   1.623 -0.0816 -0.3018 -0.3809
   12TAL    C5823560   7.173   9.805   1.771  0.0435 -0.4482  0.0992
   12TAL    C5923561   7.059   9.799   1.868  0.0925  0.8196  0.1936
   12TAL    C6023562   6.998   9.937   1.889  1.2544  0.2265  0.4337
   13HTM    C6123563   7.380   9.451   1.745 -0.1773 -0.0545  0.1771
   13HTM    C6223564   7.445   9.570   1.729 -0.3781  0.0860  0.3920
   13HTM    C6323565   7.586   9.556   1.704 -0.3326  0.3753  0.4823
   13HTM    C6423566   7.629   9.426   1.701 -0.0970  0.4553  0.3363
   13HTM     S723567   7.493   9.311   1.730  0.0869  0.1693  0.0713
   14TAL    C6523568   7.683   9.678   1.716 -0.5265  0.4713  0.0027
   14TAL    C6623569   7.658   9.808   1.642 -0.5259 -0.1238 -0.2967
   14TAL    C6723570   7.544   9.887   1.687  0.1580 -0.5020  0.1370
   14TAL    C6823571   7.497  10.015   1.614 -0.6413 -0.1443  0.1629
   14TAL    C6923572   7.612  10.121   1.599 -0.8311  0.5055  0.2090
   14TAL    C7023573   7.621  10.210   1.721 -0.2204 -0.3763  0.0210
   15HTM    C7123574   7.760   9.369   1.676  0.0812 -0.2643 -0.0881
   15HTM    C7223575   7.794   9.240   1.702  0.3872 -0.2676 -0.4971
   15HTM    C7323576   7.934   9.212   1.683  0.4892  0.1700 -0.4026
   15HTM    C7423577   8.006   9.320   1.642  0.2607  0.5070  0.0784
   15HTM     S823578   7.903   9.466   1.625 -0.1032  0.2961  0.4524
   16TAL    C7523579   7.976   9.070   1.723 -0.5467  0.3814 -0.5205
   16TAL    C7623580   8.061   9.056   1.850 -0.1574 -0.1532 -0.1352
   16TAL    C7723581   8.130   8.919   1.869  0.0653 -0.0474 -0.1863
   16TAL    C7823582   8.236   8.914   1.984 -0.4864  0.0997 -0.2181
   16TAL    C7923583   8.289   8.776   1.999  0.5109 -0.2367 -0.6197
   16TAL    C8023584   8.412   8.740   1.904 -0.2047  0.3066 -0.4308
   17HTM    C8123585   8.146   9.335   1.610 -0.2760 -0.0465 -0.1474
   17HTM    C8223586   8.244   9.334   1.705 -0.5956  0.3259  0.1884
   17HTM    C8323587   8.377   9.340   1.650 -0.4234  0.5858  0.6344
   17HTM    C8423588   8.381   9.345   1.514  0.0288  0.4116  0.6387
   17HTM     S923589   8.215   9.343   1.443  0.2724 -0.0983  0.0753
   18TAL    C8523590   8.497   9.349   1.748  0.4014  0.3295  0.3161
   18TAL    C8623591   8.505   9.251   1.867 -0.3705 -0.5684 -0.4429
   18TAL    C8723592   8.491   9.096   1.854  0.0854  0.2392 -0.5242
   18TAL    C8823593   8.557   9.026   1.735  0.1264  0.0034  0.0017
   18TAL    C8923594   8.714   9.031   1.723  0.7596  0.2885 -0.4134
   18TAL    C9023595   8.779   8.971   1.594 -0.2385  0.3666 -0.5362
   19HTM    C9123596   8.485   9.340   1.417 -0.5060  0.0738 -0.1874
   19HTM    C9223597   8.608   9.286   1.443 -0.6599 -0.0286  0.3425
   19HTM    C9323598   8.695   9.284   1.329 -0.1969 -0.1803  0.6962
   19HTM    C9423599   8.639   9.336   1.216  0.3091 -0.1937  0.4361
   19HTM    S1023600   8.470   9.392   1.245  0.2404 -0.0142 -0.2814
   20TAL    C9523601   8.842   9.243   1.328  0.2205  0.5760 -0.1008
   20TAL    C9623602   8.939   9.346   1.388 -0.1411 -0.0798 -0.6583
   20TAL    C9723603   8.973   9.481   1.321  0.2018  0.2160 -0.2625
   20TAL    C9823604   9.038   9.476   1.185 -0.4362 -0.1674  0.6542
   20TAL    C9923605   9.097   9.613   1.143  0.5045 -0.0335  0.4133
   20TAL   C10023606   9.141   9.622   0.996  0.5337  0.3899 -0.0927
   21HTM   C10123607   8.689   9.359   1.081  0.1650  0.6211  0.0667
   21HTM   C10223608   8.707   9.478   1.017 -0.0110  0.4005 -0.3980
   21HTM   C10323609   8.782   9.467   0.894 -0.3152 -0.0188 -0.5471
   21HTM   C10423610   8.820   9.340   0.865 -0.3714 -0.1180 -0.1959
   21HTM    S1123611   8.765   9.223   0.991 -0.0421  0.3139  0.3545
   22TAL   C10523612   8.821   9.593   0.819 -0.5347 -0.5149 -0.3897
   22TAL   C10623613   8.746   9.641   0.698  0.2428 -0.5763  0.5940
   22TAL   C10723614   8.794   9.754   0.610 -0.1036 -0.2711  0.5308
   22TAL   C10823615   8.921   9.711   0.538  0.2562 -0.5961 -0.6928
   22TAL   C10923616   8.989   9.823   0.466  0.1132 -0.0987 -0.1916
   22TAL   C11023617   9.109   9.768   0.390 -0.7668 -0.5800  0.3120
   23HTM   C11123618   8.905   9.287   0.759 -0.1680  0.3572  0.4240
   23HTM   C11223619   8.887   9.165   0.701 -0.4463  0.2650  0.7053
   23HTM   C11323620   8.982   9.135   0.598 -0.6065 -0.1282  0.6699
   23HTM   C11423621   9.072   9.234   0.576 -0.4510 -0.3359  0.3616
   23HTM    S1223622   9.044   9.375   0.685 -0.0868 -0.0487  0.0899
   24TAL   C11523623   8.982   9.000   0.530 -0.2824 -0.4856  0.0010
   24TAL   C11623624   9.006   8.886   0.633  0.4132  0.3308  0.2775
   24TAL   C11723625   9.149   8.858   0.682 -0.5266  0.2829 -0.8462
   24TAL   C11823626   9.265   8.840   0.581  0.1721 -0.0135  0.1176
   24TAL   C11923627   9.240   8.729   0.475  0.1619  0.1114 -0.6048
   24TAL   C12023628   9.345   8.723   0.366 -0.0241  0.2463  0.2175
   25HTM   C12123629   9.185   9.242   0.483 -0.0473  0.3677  0.1546
   25HTM   C12223630   9.296   9.163   0.496 -0.1107  0.2764  0.1436
   25HTM   C12323631   9.389   9.176   0.387 -0.2954 -0.0934 -0.0612
   25HTM   C12423632   9.350   9.265   0.291 -0.3727 -0.2841 -0.2065
   25HTM    S1323633   9.191   9.339   0.331 -0.2171 -0.0092 -0.0950
   26TAL   C12523634   9.499   9.073   0.371 -0.1696  0.2650  0.6373
   26TAL   C12623635   9.632   9.082   0.462 -0.4727  0.1582  0.2634
   26TAL   C12723636   9.755   8.999   0.420  0.4351 -0.2986 -0.2914
   26TAL   C12823637   9.810   9.028   0.283 -0.3037  0.4304 -0.3905
   26TAL   C12923638   9.959   9.008   0.281 -0.9373  0.6578  0.1023
   26TAL   C13023639  10.020   9.030   0.142  0.4601 -0.1285 -0.1123
   27HTM   C13123640   9.404   9.303   0.163  0.1702  0.1397  0.1151
   27HTM   C13223641   9.325   9.323   0.053 -0.0231 -0.0128  0.2261
   27HTM   C13323642   9.396   9.316  -0.071 -0.2684 -0.3251  0.1020
   27HTM   C13423643   9.529   9.291  -0.057 -0.2621 -0.4107 -0.1039
   27HTM    S1423644   9.575   9.274   0.116  0.0566 -0.1011 -0.1570
   28TAL   C13523645   9.322   9.348  -0.200 -0.3186  0.5745  0.2491
   28TAL   C13623646   9.382   9.434  -0.305  0.3207 -0.4947  0.2780
   28TAL   C13723647   9.291   9.452  -0.421  0.1429  0.2534 -0.2936
   28TAL   C13823648   9.335   9.541  -0.540  0.9966 -0.5523  0.0414
   28TAL   C13923649   9.389   9.677  -0.505 -0.0330 -0.3229  0.4296
   28TAL   C14023650   9.293   9.770  -0.432  0.2936 -0.3308 -0.0303
   29HTM   C14123651   9.619   9.233  -0.152  0.4147  0.0860 -0.4184
   29HTM   C14223652   9.753   9.243  -0.175  0.4306 -0.1402 -0.4306
   29HTM   C14323653   9.803   9.149  -0.273  0.3081 -0.3910 -0.2522
   29HTM   C14423654   9.706   9.067  -0.324  0.1990 -0.3560 -0.1038
   29HTM    S1523655   9.545   9.103  -0.252  0.2426 -0.0008 -0.1785
   30TAL   C14523656   9.947   9.150  -0.330 -0.6049  0.4280  0.1516
   30TAL   C14623657  10.048   9.105  -0.217 -0.3261  0.4953  0.2220
   30TAL   C14723658  10.191   9.073  -0.259 -0.2103 -0.2561  0.5160
   30TAL   C14823659  10.272   9.193  -0.319 -0.1982 -0.3505 -0.1346
   30TAL   C14923660  10.414   9.152  -0.342 -0.2127 -0.2219 -0.1529
   30TAL   C15023661  10.483   9.277  -0.385 -0.0489  0.5888  0.1964
   31HTM   C15123662   9.712   8.944  -0.401  0.0526  0.0273 -0.1634
   31HTM   C15223663   9.788   8.908  -0.509 -0.0101  0.1979 -0.2642
   31HTM   C15323664   9.757   8.778  -0.561 -0.0332  0.2766 -0.4468
   31HTM   C15423665   9.657   8.714  -0.493  0.0118  0.1655 -0.4854
   31HTM    S1623666   9.595   8.814  -0.357  0.0874 -0.0485 -0.2925
   32TAL   C15523667   9.838   8.719  -0.680  0.6364 -0.6702 -0.0737
   32TAL   C15623668   9.947   8.797  -0.755 -0.2191 -0.0550 -0.4114
   32TAL   C15723669   9.899   8.921  -0.833  0.4530 -0.7173  0.0198
   32TAL   C15823670  10.001   9.011  -0.900 -0.6267  0.3057  0.1269
   32TAL   C15923671  10.096   9.089  -0.817 -0.1282 -0.4561 -0.5004
   32TAL   C16023672  10.210   9.165  -0.887 -0.4608 -0.0784  0.1586
   33HTM   C16123673   9.587   8.588  -0.509  0.1575 -0.4007  0.1039
   33HTM   C16223674   9.508   8.593  -0.620  0.2952 -0.8321 -0.0157
   33HTM   C16323675   9.385   8.519  -0.608  0.3140 -0.8450  0.0939
   33HTM   C16423676   9.371   8.457  -0.488  0.1907 -0.4243  0.2986
   33HTM    S1723677   9.512   8.487  -0.380  0.0400  0.0249  0.3685
   34TAL   C16523678   9.283   8.540  -0.719 -0.0816  0.2518  0.3159
   34TAL   C16623679   9.187   8.657  -0.702  0.2422 -0.4461  0.5866
   34TAL   C16723680   9.244   8.796  -0.679 -0.5849  0.2084 -0.2021
   34TAL   C16823681   9.147   8.905  -0.657 -0.1933  0.1399  0.4239
   34TAL   C16923682   9.219   9.042  -0.645 -0.5324  0.4763  0.3476
   34TAL   C17023683   9.109   9.146  -0.641  0.0031 -0.5390  0.0297
   35HTM   C17123684   9.264   8.372  -0.429  0.2704  0.2077 -0.0062
   35HTM   C17223685   9.269   8.302  -0.312  0.3174  0.1397 -0.0482
   35HTM   C17323686   9.144   8.242  -0.275  0.3422  0.0854 -0.0529
   35HTM   C17423687   9.043   8.266  -0.363  0.3141  0.1117 -0.0137
   35HTM    S1823688   9.099   8.368  -0.502  0.2537  0.2073  0.0315
   36TAL   C17523689   9.129   8.158  -0.152  0.1445 -0.0216 -0.3159
   36TAL   C17623690   9.253   8.126  -0.077  0.0067  0.4112 -0.7947
   36TAL   C17723691   9.233   8.019   0.031 -0.0465  0.0265  0.4990
   36TAL   C17823692   9.362   7.985   0.097  0.2421  0.1528  0.0391
   36TAL   C17923693   9.444   8.081   0.184  0.0474 -0.3426  0.6138
   36TAL   C18023694   9.540   7.988   0.254 -0.1861 -0.0187 -0.2226
   37HTM   C18123695   8.900   8.252  -0.348 -0.1096  0.0833  0.2215
   37HTM   C18223696   8.819   8.157  -0.294 -0.0105 -0.1631 -0.0615
   37HTM   C18323697   8.679   8.192  -0.297 -0.0739 -0.4311 -0.2265
   37HTM   C18423698   8.654   8.313  -0.354 -0.2204 -0.3883 -0.0696
   37HTM    S1923699   8.805   8.394  -0.408 -0.2924 -0.0041  0.3014
   38TAL   C18523700   8.575   8.098  -0.241 -0.2709  0.1567  0.7159
   38TAL   C18623701   8.605   7.951  -0.230  0.1688  0.3553  0.6608
   38TAL   C18723702   8.665   7.909  -0.092  0.0987 -0.6450 -0.2051
   38TAL   C18823703   8.721   7.766  -0.075 -0.8910  0.2050 -0.8758
   38TAL   C18923704   8.854   7.730  -0.150 -0.5719 -0.0866  0.4134
   38TAL   C19023705   8.988   7.787  -0.090 -0.0321 -0.1217 -0.5880
   39HTM   C19123706   8.528   8.393  -0.360 -0.1588 -0.4338 -0.2614
   39HTM   C19223707   8.517   8.507  -0.434 -0.2651 -0.4992 -0.3457
   39HTM   C19323708   8.390   8.573  -0.420 -0.1960 -0.4139 -0.1173
   39HTM   C19423709   8.304   8.510  -0.335 -0.0375 -0.2837  0.1411
   39HTM    S2023710   8.377   8.360  -0.266  0.0381 -0.2579  0.1162
   40TAL   C19523711   8.365   8.706  -0.498  0.4214  0.6936  0.1069
   40TAL   C19623712   8.414   8.829  -0.430  0.3342  0.6196 -0.6263
   40TAL   C19723713   8.350   8.946  -0.510  0.4782  0.0187  0.2661
   40TAL   C19823714   8.357   9.076  -0.434 -0.0239 -0.2827  0.0527
   40TAL   C19923715   8.320   9.193  -0.523  0.4263  0.9723 -1.0460
   40TAL   C20023716   8.361   9.323  -0.456 -0.0077 -0.0472  0.7197
   41HTM   C20123717   8.172   8.549  -0.296  0.2493 -0.2712 -0.1733
   41HTM   C20223718   8.075   8.607  -0.373  0.2065 -0.5665 -0.3424
   41HTM   C20323719   7.958   8.647  -0.300  0.1664 -0.4635 -0.4625
   41HTM   C20423720   7.965   8.620  -0.167  0.1779 -0.0884 -0.3871
   41HTM    S2123721   8.121   8.541  -0.123  0.2410  0.1646 -0.1551
   42TAL   C20523722   7.842   8.729  -0.359  0.3186 -0.3815  0.0545
   42TAL   C20623723   7.883   8.834  -0.466  0.3927 -0.1840  0.1469
   42TAL   C20723724   7.931   8.971  -0.415 -0.6053 -0.7238  0.0414
   42TAL   C20823725   7.826   9.060  -0.356  0.9697 -0.0239 -0.3254
   42TAL   C20923726   7.859   9.198  -0.336  0.1425 -1.0082  0.2848
   42TAL   C21023727   7.755   9.293  -0.276 -0.0595 -0.1111  0.0539
   43HTM   C21123728   7.872   8.647  -0.064 -0.5992 -0.1933  0.0767
   43HTM   C21223729   7.789   8.560  -0.001 -1.0309  0.2136  0.0792
   43HTM   C21323730   7.694   8.623   0.087 -0.8938  0.7010 -0.1216
   43HTM   C21423731   7.705   8.759   0.090 -0.3577  0.6656 -0.2762
   43HTM    S2223732   7.837   8.818  -0.018  0.0186  0.0091 -0.1809
   44TAL   C21523733   7.583   8.539   0.149 -0.4074 -0.4534  0.5146
   44TAL   C21623734   7.500   8.449   0.054 -0.3367  0.1049 -0.4174
   44TAL   C21723735   7.419   8.516  -0.058 -0.5012 -0.1981  0.6036
   44TAL   C21823736   7.369   8.423  -0.171 -0.9883  0.1707 -0.5587
   44TAL   C21923737   7.469   8.433  -0.300  0.0698  0.3637  0.0702
   44TAL   C22023738   7.407   8.341  -0.402 -0.2327  0.9547  0.0219
   45HTM   C22123739   7.632   8.858   0.173 -0.2266  0.3241  0.4556
   45HTM   C22223740   7.648   8.993   0.166 -0.1135  0.3181  0.6112
   45HTM   C22323741   7.566   9.066   0.259 -0.2468  0.2928  0.5137
   45HTM   C22423742   7.488   8.987   0.337 -0.4611  0.2792  0.2838
   45HTM    S2323743   7.511   8.812   0.298 -0.5117  0.2968  0.1717
   46TAL   C22523744   7.572   9.217   0.262  0.0185  0.3266 -0.7688
   46TAL   C22623745   7.713   9.267   0.244 -0.6056 -0.1734  0.0740
   46TAL   C22723746   7.823   9.230   0.344  0.5453  0.6785 -0.4312
   46TAL   C22823747   7.805   9.290   0.487 -0.2966  0.8563 -0.3174
   46TAL   C22923748   7.921   9.265   0.575 -0.7593  0.0273 -0.4615
   46TAL   C23023749   7.915   9.324   0.716 -1.0470  0.4662  0.3906
   47HTM   C23123750   7.387   9.020   0.435  0.4663  0.3685  0.2194
   47HTM   C23223751   7.311   8.930   0.503  0.5784  0.1683  0.0799
   47HTM   C23323752   7.225   8.989   0.601  0.3827 -0.0753  0.0571
   47HTM   C23423753   7.235   9.125   0.608  0.1213 -0.0617  0.1793
   47HTM    S2423754   7.355   9.189   0.490  0.1023  0.2634  0.3337
   48TAL   C23523755   7.129   8.903   0.681  0.1586 -0.0268 -0.2921
   48TAL   C23623756   7.033   8.974   0.781 -0.1391  0.3789  0.2604
   48TAL   C23723757   7.097   9.004   0.910  0.2583 -0.1759 -0.0421
   48TAL   C23823758   7.007   9.082   1.010 -0.3149 -0.3389 -0.3284
   48TAL   C23923759   6.876   9.029   1.051  0.0487 -0.2219  0.4550
   48TAL   C24023760   6.807   9.115   1.148  0.1234 -0.4429 -0.7729
    1HTM     C123761   5.141   4.356   6.362 -0.2642 -0.0017 -0.3845
    1HTM     C223762   5.060   4.336   6.470 -0.7756  0.0958 -0.7477
    1HTM     C323763   5.089   4.215   6.542 -1.0014  0.2520 -0.3958
    1HTM     C423764   5.192   4.143   6.490 -0.6624  0.2734  0.2362
    1HTM     S123765   5.261   4.223   6.344 -0.0263  0.0967  0.4368
    2TAL     C523766   5.033   4.188   6.688  0.2891 -0.1677  0.7016
    2TAL     C623767   5.072   4.271   6.812 -0.5124 -0.4464 -0.7687
    2TAL     C723768   5.044   4.425   6.790  0.1855  0.0526 -0.0470
    2TAL     C823769   5.049   4.491   6.930  0.4329  0.0998  1.1209
    2TAL     C923770   4.951   4.614   6.936  0.2843  0.2085  0.2397
    2TAL    C1023771   4.939   4.662   7.081  0.1252  0.3659  0.2071
    3HTM    C1123772   5.275   4.035   6.542 -0.1923  0.3034 -0.0257
    3HTM    C1223773   5.406   4.029   6.578 -0.2193  0.1156  0.0436
    3HTM    C1323774   5.445   3.903   6.636 -0.3922  0.0017 -0.0863
    3HTM    C1423775   5.342   3.813   6.646 -0.4966  0.1028 -0.2548
    3HTM     S223776   5.188   3.881   6.581 -0.3842  0.3516 -0.2626
    4TAL    C1523777   5.584   3.873   6.685  0.3039  0.0930  0.2183
    4TAL    C1623778   5.710   3.949   6.632 -0.2173  0.1791  0.2799
    4TAL    C1723779   5.833   3.916   6.711 -0.6789  0.0958  0.3619
    4TAL    C1823780   5.958   3.959   6.631 -0.3288 -0.7562 -0.0042
    4TAL    C1923781   6.090   3.942   6.705  0.3925  0.0833  0.9308
    4TAL    C2023782   6.208   4.006   6.621 -0.3050  0.2681 -1.1964
    5HTM    C2123783   5.341   3.678   6.698 -0.0336  0.0988  0.2816
    5HTM    C2223784   5.230   3.607   6.730 -0.1566  0.3177  0.3438
    5HTM    C2323785   5.258   3.473   6.774 -0.4127  0.1692  0.0560
    5HTM    C2423786   5.391   3.442   6.776 -0.4846 -0.1631 -0.2256
    5HTM     S323787   5.492   3.581   6.722 -0.2328 -0.3151 -0.1486
    6TAL    C2523788   5.154   3.374   6.812  0.8680  0.3803  0.2844
    6TAL    C2623789   5.009   3.400   6.773  0.2069 -0.8120 -0.0764
    6TAL    C2723790   4.936   3.516   6.850  0.7130 -0.6108  0.7711
    6TAL    C2823791   4.925   3.520   7.005 -0.7134 -0.5799  0.4399
    6TAL    C2923792   5.056   3.570   7.058  0.1064  0.5495 -0.2505
    6TAL    C3023793   5.035   3.594   7.206 -0.1755  0.3550 -0.4865
    7HTM    C3123794   5.461   3.318   6.815 -0.4391  0.0040 -0.4676
    7HTM    C3223795   5.594   3.291   6.799 -0.4055  0.1450 -0.4313
    7HTM    C3323796   5.631   3.158   6.839 -0.2275  0.2689 -0.1788
    7HTM    C3423797   5.527   3.083   6.885 -0.1250  0.2226 -0.0227
    7HTM     S423798   5.372   3.176   6.883 -0.2462  0.0171 -0.1836
    8TAL    C3523799   5.771   3.110   6.835 -0.6383 -0.0493 -0.5644
    8TAL    C3623800   5.856   3.123   6.966  0.6622  0.2319  0.2587
    8TAL    C3723801   6.005   3.087   6.956 -0.0628  0.2450 -0.1741
    8TAL    C3823802   6.045   2.936   6.955  0.1253  0.2354 -0.3697
    8TAL    C3923803   6.191   2.928   6.949 -0.1249  0.5524 -0.6915
    8TAL    C4023804   6.226   2.780   6.941  0.2089 -0.4435  0.4100
    9HTM    C4123805   5.514   2.950   6.942  0.4477  0.1187  0.0828
    9HTM    C4223806   5.399   2.898   6.993  0.4697  0.3176  0.3364
    9HTM    C4323807   5.417   2.768   7.054  0.4122  0.3618  0.4470
    9HTM    C4423808   5.545   2.722   7.049  0.3466  0.1966  0.2784
    9HTM     S523809   5.654   2.839   6.967  0.3525 -0.0294 -0.0359
   10TAL    C4523810   5.290   2.716   7.107  0.1965  0.1818  0.4662
   10TAL    C4623811   5.182   2.669   7.003 -0.3830  0.1627 -0.0335
   10TAL    C4723812   5.054   2.606   7.043 -0.4028  0.1135 -0.0292
   10TAL    C4823813   5.061   2.463   7.099 -0.1300 -0.3904  0.1991
   10TAL    C4923814   4.933   2.388   7.069  0.4542  0.2655  0.2992
   10TAL    C5023815   4.962   2.235   7.081  0.2087  0.3372  0.1025
   11HTM    C5123816   5.607   2.588   7.074 -0.0691  0.0610 -0.2156
   11HTM    C5223817   5.736   2.560   7.039  0.0851  0.3465  0.1128
   11HTM    C5323818   5.769   2.420   7.048  0.4334  0.4451  0.3898
   11HTM    C5423819   5.666   2.341   7.090  0.5452  0.2348  0.2723
   11HTM     S623820   5.518   2.439   7.121  0.2162 -0.1069 -0.2004
   12TAL    C5523821   5.910   2.370   7.020 -0.0272  0.4044  0.5267
   12TAL    C5623822   6.009   2.467   6.955  0.2047 -0.3199 -1.0126
   12TAL    C5723823   6.152   2.415   6.919  0.6317  0.3393  0.6556
   12TAL    C5823824   6.174   2.295   6.838 -0.2876  0.4441 -0.1460
   12TAL    C5923825   6.319   2.265   6.813 -0.0418 -0.4347 -0.0880
   12TAL    C6023826   6.321   2.124   6.766 -0.5736  0.1133  0.5948
   13HTM    C6123827   5.655   2.193   7.085  0.1596  0.1039  0.4961
   13HTM    C6223828   5.535   2.127   7.085  0.2360 -0.0334  0.9792
   13HTM    C6323829   5.546   1.987   7.050  0.2289  0.0307  0.7169
   13HTM    C6423830   5.674   1.947   7.023  0.1474  0.2170  0.0341
   13HTM     S723831   5.791   2.083   7.040  0.0729  0.3267 -0.3337
   14TAL    C6523832   5.415   1.904   7.045 -0.1497 -0.1610 -0.1764
   14TAL    C6623833   5.283   1.964   7.098 -0.6104  0.3746 -0.3814
   14TAL    C6723834   5.153   1.889   7.069  0.3659  0.6458 -0.6529
   14TAL    C6823835   5.142   1.744   7.122  0.2179  0.1237 -0.2754
   14TAL    C6923836   5.006   1.676   7.105 -0.2165 -0.3107  0.1788
   14TAL    C7023837   5.014   1.529   7.131 -0.3176  0.6837  0.3820
   15HTM    C7123838   5.733   1.830   6.964 -0.1487  0.0588 -0.1501
   15HTM    C7223839   5.672   1.712   6.935 -0.0422 -0.0042 -0.1185
   15HTM    C7323840   5.762   1.611   6.885  0.0608  0.0396 -0.0224
   15HTM    C7423841   5.891   1.652   6.876  0.0332  0.1362  0.0191
   15HTM     S823842   5.910   1.823   6.931 -0.1266  0.1794 -0.0600
   16TAL    C7523843   5.704   1.483   6.828  0.5261 -0.3497 -0.0883
   16TAL    C7623844   5.589   1.418   6.906  0.2368  0.0605 -0.1279
   16TAL    C7723845   5.620   1.348   7.040 -0.0807 -0.1773 -0.1318
   16TAL    C7823846   5.696   1.213   7.031 -0.5652  0.4246  0.5806
   16TAL    C7923847   5.598   1.093   7.028 -0.4696  0.4580 -0.2218
   16TAL    C8023848   5.658   0.954   7.047  0.5533 -0.4452  0.0091
   17HTM    C8123849   6.006   1.596   6.806  0.1564  0.2601  0.3926
   17HTM    C8223850   6.114   1.656   6.748  0.1631  0.3432  0.4911
   17HTM    C8323851   6.213   1.563   6.701  0.1109  0.4054  0.2565
   17HTM    C8423852   6.181   1.433   6.723  0.0641  0.3694 -0.0209
   17HTM     S923853   6.022   1.416   6.806  0.0829  0.2535 -0.0069
   18TAL    C8523854   6.332   1.621   6.625  0.2961  0.8998 -0.2239
   18TAL    C8623855   6.461   1.648   6.704  0.3740 -0.5525  0.0377
   18TAL    C8723856   6.459   1.776   6.794 -0.3077 -0.0441 -0.2223
   18TAL    C8823857   6.596   1.823   6.842  0.0750  0.6898  0.5299
   18TAL    C8923858   6.595   1.915   6.959  0.2167 -0.7480  0.2778
   18TAL    C9023859   6.732   1.970   6.987 -0.5022  0.0846  0.0548
   19HTM    C9123860   6.263   1.310   6.710 -0.0462 -0.3312  0.3856
   19HTM    C9223861   6.214   1.183   6.696  0.1795 -0.4343  0.5329
   19HTM    C9323862   6.315   1.081   6.709  0.4752 -0.2141  0.0179
   19HTM    C9423863   6.440   1.130   6.733  0.4747  0.0569 -0.5230
   19HTM    S1023864   6.441   1.310   6.741  0.0981  0.0548 -0.4222
   20TAL    C9523865   6.279   0.933   6.681 -0.4705  0.0650 -0.0089
   20TAL    C9623866   6.240   0.894   6.541 -0.3112  0.0255  0.1522
   20TAL    C9723867   6.332   0.915   6.417 -0.0573 -1.0645  1.0203
   20TAL    C9823868   6.471   0.859   6.433 -0.6091  0.1785 -0.0384
   20TAL    C9923869   6.575   0.921   6.344 -0.1791 -0.3422  0.2917
   20TAL   C10023870   6.720   0.868   6.378  0.1807 -0.0645 -0.6153
   21HTM   C10123871   6.565   1.060   6.766 -0.1691  0.0710  0.3491
   21HTM   C10223872   6.684   1.122   6.793 -0.1948  0.1422  0.2987
   21HTM   C10323873   6.790   1.031   6.827 -0.0777  0.1946  0.0687
   21HTM   C10423874   6.753   0.900   6.825  0.0380  0.1634 -0.0566
   21HTM    S1123875   6.579   0.880   6.781  0.0070  0.0644  0.1077
   22TAL   C10523876   6.935   1.085   6.835  0.3431 -0.2999 -1.3121
   22TAL   C10623877   6.950   1.155   6.973 -0.3042 -0.5412  0.4312
   22TAL   C10723878   7.092   1.203   7.008  0.2217  0.6900  0.1214
   22TAL   C10823879   7.208   1.114   7.055  0.0597 -0.4175  0.3338
   22TAL   C10923880   7.180   1.020   7.166 -0.8846 -0.5912  0.1722
   22TAL   C11023881   7.310   0.948   7.198 -0.0575 -0.1728 -0.2824
   23HTM   C11123882   6.821   0.778   6.855 -0.0326 -0.0913 -0.1091
   23HTM   C11223883   6.798   0.656   6.798 -0.1445 -0.3602  0.5014
   23HTM   C11323884   6.899   0.558   6.828 -0.2248 -0.3018  0.9782
   23HTM   C11423885   7.000   0.605   6.907 -0.1738  0.0117  0.7313
   23HTM    S1223886   6.974   0.778   6.952 -0.0199  0.2594 -0.1289
   24TAL   C11523887   6.884   0.413   6.798 -0.0575 -0.0622 -0.4375
   24TAL   C11623888   6.746   0.343   6.804  0.3184  0.6308 -0.7511
   24TAL   C11723889   6.747   0.222   6.892  0.2449 -0.4171 -0.4748
   24TAL   C11823890   6.609   0.144   6.887 -0.5722  0.3490 -0.5243
   24TAL   C11923891   6.593   0.027   6.988  0.4726 -0.3371  0.4081
   24TAL   C12023892   6.588   0.074   7.130 -0.3165  0.8222  0.0020
   25HTM   C12123893   7.128   0.548   6.951 -0.1193 -0.1681  0.2163
   25HTM   C12223894   7.200   0.445   6.899 -0.3116 -0.3451  0.2966
   25HTM   C12323895   7.323   0.419   6.969 -0.3107 -0.4525  0.2546
   25HTM   C12423896   7.344   0.502   7.075 -0.1173 -0.3573  0.1422
   25HTM    S1323897   7.210   0.620   7.095  0.0795 -0.1228  0.0801
   26TAL   C12523898   7.409   0.300   6.933  0.3147 -0.3448 -0.0519
   26TAL   C12623899   7.392   0.172   7.020 -0.1802 -0.2133 -0.5643
   26TAL   C12723900   7.482   0.053   6.992  0.4220  0.4271 -0.4021
   26TAL   C12823901   7.633   0.069   7.028  0.0004 -0.3879  0.9116
   26TAL   C12923902   7.676   0.097   7.173 -0.0209  0.2753  0.3654
   26TAL   C13023903   7.824   0.108   7.211 -0.6987 -0.3668 -0.4261
   27HTM   C13123904   7.449   0.505   7.170 -0.0351 -0.5384 -0.4407
   27HTM   C13223905   7.582   0.483   7.152 -0.0932 -1.0860 -0.2277
   27HTM   C13323906   7.661   0.499   7.271 -0.1678 -1.0159 -0.1876
   27HTM   C13423907   7.588   0.533   7.381 -0.1668 -0.4149 -0.3700
   27HTM    S1423908   7.412   0.548   7.342 -0.0704  0.1133 -0.6083
   28TAL   C13523909   7.813   0.481   7.263  0.4459 -0.2271  0.7972
   28TAL   C13623910   7.882   0.605   7.194  0.2989 -0.1165  0.4184
   28TAL   C13723911   7.897   0.738   7.270 -0.3322  0.0123 -0.1425
   28TAL   C13823912   8.007   0.725   7.383 -0.0082  0.5734  0.1637
   28TAL   C13923913   8.141   0.789   7.335  0.1247 -0.1828  0.1201
   28TAL   C14023914   8.252   0.756   7.440 -0.1855  0.2147  0.2782
   29HTM   C14123915   7.623   0.557   7.521  0.3572 -0.1916  0.3153
   29HTM   C14223916   7.746   0.590   7.571  0.2613 -0.4335  0.7119
   29HTM   C14323917   7.745   0.616   7.713 -0.1624 -0.3474  0.6940
   29HTM   C14423918   7.622   0.603   7.770 -0.3901 -0.0398  0.2848
   29HTM    S1523919   7.497   0.556   7.649 -0.0842  0.1665 -0.1133
   30TAL   C14523920   7.869   0.666   7.791  0.6831 -0.2525  0.1915
   30TAL   C14623921   7.915   0.803   7.748  0.1782  0.2753  0.6044
   30TAL   C14723922   8.028   0.871   7.827  0.5062  0.4755 -0.8284
   30TAL   C14823923   8.034   1.021   7.805 -0.7382  0.2818  0.2518
   30TAL   C14923924   8.140   1.098   7.885  0.1114  0.0511 -0.0653
   30TAL   C15023925   8.147   1.250   7.873  0.1806 -0.1211  0.0934
   31HTM   C15123926   7.582   0.600   7.904 -0.0769  0.1965  0.3108
   31HTM   C15223927   7.637   0.563   8.023 -0.1669  0.4381  0.4277
   31HTM   C15323928   7.550   0.583   8.136 -0.3858  0.3328  0.2789
   31HTM   C15423929   7.429   0.635   8.103 -0.4631  0.0109  0.0483
   31HTM    S1623930   7.414   0.663   7.925 -0.2635 -0.1859  0.0014
   32TAL   C15523931   7.601   0.556   8.273 -0.3193  0.0568  0.0015
   32TAL   C15623932   7.724   0.640   8.323  0.2502 -0.9325  0.9151
   32TAL   C15723933   7.703   0.791   8.324 -0.2297  0.4816  0.1615
   32TAL   C15823934   7.823   0.883   8.338  0.0970 -0.6313 -0.2916
   32TAL   C15923935   7.866   0.939   8.200 -0.2132 -0.2753 -0.2401
   32TAL   C16023936   7.960   1.054   8.209 -0.3880  0.0200  0.5233
   33HTM   C16123937   7.312   0.683   8.169  0.3420  0.3333 -0.3514
   33HTM   C16223938   7.215   0.631   8.249  0.3898  0.0912 -0.4497
   33HTM   C16323939   7.103   0.719   8.269  0.1311 -0.2019 -0.5918
   33HTM   C16423940   7.115   0.839   8.204 -0.1137 -0.1832 -0.6026
   33HTM    S1723941   7.269   0.849   8.112 -0.0360  0.2090 -0.4326
   34TAL   C16523942   6.989   0.673   8.369  1.0307  0.1739  0.0577
   34TAL   C16623943   6.870   0.600   8.313  0.1353 -0.4005 -0.2655
   34TAL   C16723944   6.774   0.545   8.420 -0.8647 -0.4863 -0.1040
   34TAL   C16823945   6.657   0.470   8.356  0.2794  0.3168  1.1462
   34TAL   C16923946   6.601   0.366   8.447 -0.3723 -0.5212 -0.5512
   34TAL   C17023947   6.486   0.310   8.380 -0.3399  0.7770  0.2458
   35HTM   C17123948   7.038   0.963   8.193  0.2780 -0.1619  0.3103
   35HTM   C17223949   7.078   1.079   8.133  0.2756 -0.1640  0.3052
   35HTM   C17323950   6.973   1.176   8.117  0.2367 -0.2322  0.1493
   35HTM   C17423951   6.852   1.134   8.164  0.2094 -0.2820  0.0366
   35HTM    S1823952   6.862   0.968   8.233  0.2311 -0.2464  0.1186
   36TAL   C17523953   7.002   1.300   8.036 -0.1787 -0.5899  0.4037
   36TAL   C17623954   7.094   1.292   7.909  0.2749  0.6063 -0.6073
   36TAL   C17723955   7.087   1.432   7.844  0.6031  0.1916 -0.0349
   36TAL   C17823956   6.952   1.469   7.784 -0.2210 -0.0407 -0.1874
   36TAL   C17923957   6.964   1.607   7.717  0.1622 -0.5809  0.9683
   36TAL   C18023958   6.872   1.620   7.599  0.4712  0.2535 -0.7916
   37HTM   C18123959   6.718   1.195   8.164 -0.0764 -0.2743  0.1086
   37HTM   C18223960   6.688   1.327   8.159  0.1330 -0.2161  0.3595
   37HTM   C18323961   6.546   1.354   8.162  0.1678 -0.0088  0.1793
   37HTM   C18423962   6.469   1.242   8.169 -0.0145  0.0911 -0.2093
   37HTM    S1923963   6.570   1.092   8.172 -0.2471 -0.0701 -0.3783
   38TAL   C18523964   6.491   1.500   8.136 -0.3440  0.9933  0.4199
   38TAL   C18623965   6.575   1.571   8.033 -0.6132 -0.6892 -0.3681
   38TAL   C18723966   6.508   1.690   7.974 -0.4428  0.7992  0.0851
   38TAL   C18823967   6.571   1.734   7.845 -0.0450  0.3164  0.6889
   38TAL   C18923968   6.557   1.884   7.813  0.2116 -0.5282  0.0872
   38TAL   C19023969   6.614   1.977   7.913  0.1118 -0.0112  0.4367
   39HTM   C19123970   6.322   1.231   8.174  0.0480  0.4174  0.4940
   39HTM   C19223971   6.226   1.326   8.192 -0.2096  0.2307  0.1192
   39HTM   C19323972   6.092   1.274   8.198 -0.1400 -0.0220 -0.4921
   39HTM   C19423973   6.086   1.138   8.184  0.1710 -0.0281 -0.5842
   39HTM    S2023974   6.250   1.066   8.163  0.4012  0.2873  0.0997
   40TAL   C19523975   5.966   1.359   8.215 -0.0765 -0.1258 -0.6944
   40TAL   C19623976   5.982   1.510   8.217 -0.0970  0.4166 -0.3072
   40TAL   C19723977   5.853   1.579   8.231  0.4104  0.2533  0.3037
   40TAL   C19823978   5.867   1.726   8.263 -0.0402  0.3398  0.3831
   40TAL   C19923979   5.729   1.789   8.262  0.3211 -0.8365  0.1483
   40TAL   C20023980   5.751   1.937   8.221  0.7132  0.0936  0.1228
   41HTM   C20123981   5.971   1.050   8.187  0.3583 -0.1018 -0.3341
   41HTM   C20223982   5.847   1.074   8.236  0.4981  0.3745 -0.2060
   41HTM   C20323983   5.758   0.961   8.228  0.1323  0.6343  0.1140
   41HTM   C20423984   5.816   0.850   8.174 -0.2864  0.3562  0.2295
   41HTM    S2123985   5.988   0.881   8.127 -0.2510 -0.2602 -0.0582
   42TAL   C20523986   5.615   0.971   8.283 -0.1476 -0.1247 -0.5361
   42TAL   C20623987   5.525   1.076   8.228 -0.6597 -0.0877 -0.2274
   42TAL   C20723988   5.382   1.052   8.281  0.0600 -0.3459 -0.5633
   42TAL   C20823989   5.266   1.118   8.216 -0.4720 -0.4216  0.3648
   42TAL   C20923990   5.257   1.273   8.219  0.0499  0.5417 -0.0268
   42TAL   C21023991   5.118   1.318   8.179  0.1217  0.2545  0.2669
   43HTM   C21123992   5.766   0.719   8.146 -0.1630  0.0367 -0.6435
   43HTM   C21223993   5.820   0.629   8.059 -0.1707 -0.2395 -0.3648
   43HTM   C21323994   5.740   0.511   8.040  0.0484 -0.5082  0.3653
   43HTM   C21423995   5.625   0.511   8.113  0.2232 -0.4368  0.6427
   43HTM    S2223996   5.608   0.661   8.212  0.1241 -0.0215 -0.0010
   44TAL   C21523997   5.796   0.408   7.945  0.6666  0.0508 -0.5077
   44TAL   C21623998   5.891   0.317   8.024 -0.3340 -0.1466  0.0250
   44TAL   C21723999   5.944   0.192   7.951 -0.5635  0.5232 -0.1235
   44TAL   C21824000   5.843   0.081   7.967  0.4498  1.0313 -0.3778
   44TAL   C21924001   5.901  -0.058   7.912 -0.2739 -0.2603 -0.2494
   44TAL   C22024002   5.841  -0.175   7.966 -0.1690  0.2567 -0.3380
   45HTM   C22124003   5.523   0.416   8.120  0.6312  0.2156  0.3405
   45HTM   C22224004   5.389   0.435   8.103  0.6104  0.2328  0.5198
   45HTM   C22324005   5.312   0.313   8.099  0.6261  0.2280  0.3319
   45HTM   C22424006   5.388   0.201   8.114  0.6588  0.2071  0.0094
   45HTM    S2324007   5.563   0.240   8.133  0.6722  0.1918 -0.0827
   46TAL   C22524008   5.159   0.310   8.074 -0.8275 -0.8419  0.3196
   46TAL   C22624009   5.068   0.426   8.122  0.6418  0.1349 -0.6891
   46TAL   C22724010   4.923   0.441   8.072 -0.7483  0.8099 -0.4163
   46TAL   C22824011   4.849   0.310   8.098 -0.4851  0.5623 -0.4278
   46TAL   C22924012   4.715   0.285   8.029 -0.0274  0.0243 -0.3538
   46TAL   C23024013   4.591   0.356   8.083 -0.2285  0.4055 -0.5230
   47HTM   C23124014   5.349   0.060   8.127 -0.3174 -0.5087  0.2631
   47HTM   C23224015   5.235   0.007   8.180 -0.3264 -0.7457  0.0105
   47HTM   C23324016   5.236  -0.137   8.189 -0.1686 -0.7625 -0.2618
   47HTM   C23424017   5.351  -0.194   8.143 -0.0393 -0.5385 -0.2170
   47HTM    S2424018   5.468  -0.069   8.085 -0.1078 -0.2874  0.1762
   48TAL   C23524019   5.140  -0.236   8.249 -0.2828 -0.0248 -0.2524
   48TAL   C23624020   5.011  -0.189   8.314  0.7653 -0.2840  0.1890
   48TAL   C23724021   4.930  -0.305   8.366 -0.2071  0.1196 -0.2564
   48TAL   C23824022   4.784  -0.278   8.350  0.2098 -0.2984 -0.8527
   48TAL   C23924023   4.702  -0.387   8.393 -0.1557  1.0036  0.3638
   48TAL   C24024024   4.561  -0.325   8.388 -0.0575  0.5760  0.5607
    1HTM     C124025   4.204   3.545   6.189 -0.0448  0.2703  0.1507
    1HTM     C224026   4.116   3.441   6.193 -0.3731  0.5119 -0.4749
    1HTM     C324027   4.170   3.317   6.142 -0.6187  0.5482 -0.8252
    1HTM     C424028   4.299   3.328   6.098 -0.4779  0.3347 -0.4669
    1HTM     S124029   4.362   3.496   6.119 -0.0204  0.0690  0.3477
    2TAL     C524030   4.093   3.184   6.137  0.9325 -0.1355 -0.3667
    2TAL     C624031   3.977   3.161   6.234 -0.2357 -0.1808  0.4933
    2TAL     C724032   3.907   3.024   6.224 -0.3923  0.0839 -0.3726
    2TAL     C824033   3.779   3.019   6.307 -0.3002 -0.4173  0.7823
    2TAL     C924034   3.709   2.888   6.334 -0.1528 -0.6575  1.1176
    2TAL    C1024035   3.594   2.918   6.428 -0.4062 -0.5559 -0.4179
    3HTM    C1124036   4.392   3.231   6.051 -0.3256  0.2136  0.4683
    3HTM    C1224037   4.527   3.254   6.054 -0.3414  0.2764  0.8018
    3HTM    C1324038   4.606   3.138   6.019 -0.2084  0.3744  0.7792
    3HTM    C1424039   4.532   3.028   5.990 -0.0915  0.3866  0.4288
    3HTM     S224040   4.355   3.060   6.005 -0.1403  0.2740  0.0976
    4TAL    C1524041   4.757   3.136   6.014  0.3666  0.0213  0.5171
    4TAL    C1624042   4.835   3.269   6.020 -0.1120  0.5719 -0.0041
    4TAL    C1724043   4.985   3.229   6.006 -0.2508 -0.5671  0.1033
    4TAL    C1824044   5.087   3.326   6.057  0.0184  0.2308 -0.6406
    4TAL    C1924045   5.233   3.292   6.032  0.2463  0.2035 -0.3486
    4TAL    C2024046   5.287   3.308   5.899 -0.1407  0.4028 -0.1920
    5HTM    C2124047   4.587   2.893   5.958 -0.6873  0.0411 -0.0776
    5HTM    C2224048   4.584   2.776   6.027 -1.0171 -0.0118 -0.1817
    5HTM    C2324049   4.639   2.664   5.955 -0.9024 -0.0075 -0.0997
    5HTM    C2424050   4.685   2.696   5.831 -0.4843  0.0483  0.0673
    5HTM     S324051   4.662   2.871   5.795 -0.2012  0.1006  0.1339
    6TAL    C2524052   4.670   2.534   6.024 -0.5867  0.8590 -0.1560
    6TAL    C2624053   4.790   2.538   6.118 -0.1945  0.0110  0.1284
    6TAL    C2724054   4.820   2.400   6.172  0.0368 -0.3888  0.1290
    6TAL    C2824055   4.942   2.392   6.253 -0.5633 -0.2501 -0.1156
    6TAL    C2924056   5.066   2.436   6.175  0.3424  0.1879  0.3641
    6TAL    C3024057   5.110   2.356   6.045 -1.1541  0.1593 -0.0242
    7HTM    C3124058   4.771   2.627   5.729  0.0956 -0.1192  0.2863
    7HTM    C3224059   4.844   2.681   5.628 -0.0834  0.0935  0.2692
    7HTM    C3324060   4.887   2.585   5.530 -0.1781  0.2835  0.0391
    7HTM    C3424061   4.847   2.457   5.557 -0.0711  0.2154 -0.1194
    7HTM     S424062   4.751   2.449   5.709  0.1592 -0.0960  0.0106
    8TAL    C3524063   4.980   2.618   5.412 -0.7736 -0.8609 -0.2760
    8TAL    C3624064   4.921   2.696   5.294  0.2293  0.4187 -0.2305
    8TAL    C3724065   4.873   2.835   5.320  0.4468 -0.1908 -0.1321
    8TAL    C3824066   4.806   2.906   5.204 -0.2924 -0.0796 -0.4302
    8TAL    C3924067   4.776   3.043   5.243 -0.5173  0.1886  0.4801
    8TAL    C4024068   4.754   3.130   5.119  0.1700  0.2887 -0.1330
    9HTM    C4124069   4.868   2.332   5.484 -0.0951 -0.0164  0.2050
    9HTM    C4224070   4.769   2.253   5.435  0.0527  0.2003 -0.4504
    9HTM    C4324071   4.817   2.138   5.361  0.2768  0.4492 -0.6924
    9HTM    C4424072   4.953   2.131   5.355  0.2996  0.4220 -0.2218
    9HTM     S524073   5.032   2.268   5.442  0.0383  0.0775  0.5699
   10TAL    C4524074   4.722   2.055   5.278 -0.5959  0.5515 -0.2268
   10TAL    C4624075   4.588   2.001   5.342  0.3820  0.1259 -0.0074
   10TAL    C4724076   4.474   2.104   5.357  0.0199  0.0625 -0.4118
   10TAL    C4824077   4.357   2.069   5.452  0.1043  0.2089 -0.0766
   10TAL    C4924078   4.271   2.190   5.479  0.2293  0.1190 -0.4229
   10TAL    C5024079   4.144   2.142   5.543  0.5487 -0.7351 -0.4450
   11HTM    C5124080   5.043   2.036   5.298  0.0558  0.2632 -0.0673
   11HTM    C5224081   5.025   1.938   5.204  0.0231  0.5726 -0.3846
   11HTM    C5324082   5.146   1.869   5.169 -0.0122  0.5999 -0.5622
   11HTM    C5424083   5.256   1.913   5.236 -0.0063  0.3113 -0.3802
   11HTM     S624084   5.215   2.047   5.350  0.0449 -0.0199  0.0325
   12TAL    C5524085   5.144   1.760   5.064 -0.1602  0.7789  0.7676
   12TAL    C5624086   5.054   1.777   4.944 -0.2435 -0.1654  0.2921
   12TAL    C5724087   5.099   1.866   4.826 -0.2880 -0.7835  0.5545
   12TAL    C5824088   5.101   2.016   4.861  0.8066  0.2208 -0.2276
   12TAL    C5924089   4.962   2.072   4.887 -0.2327  0.5299 -0.3075
   12TAL    C6024090   4.950   2.220   4.912 -0.9053 -0.3296  0.1640
   13HTM    C6124091   5.395   1.860   5.237  0.1185 -0.3010  0.3643
   13HTM    C6224092   5.447   1.790   5.132  0.0863 -0.6235  0.5624
   13HTM    C6324093   5.591   1.782   5.134  0.0951 -0.4871  0.4594
   13HTM    C6424094   5.648   1.846   5.240  0.1340 -0.0606  0.1829
   13HTM     S724095   5.524   1.922   5.346  0.1626  0.2039  0.0300
   14TAL    C6524096   5.658   1.709   5.016  0.7424  0.0117  0.4398
   14TAL    C6624097   5.603   1.703   4.872  0.3721 -0.7738  0.0983
   14TAL    C6724098   5.568   1.840   4.810 -0.5785  0.3468 -0.6047
   14TAL    C6824099   5.472   1.834   4.695 -0.8105  0.0119  0.0358
   14TAL    C6924100   5.422   1.969   4.655 -0.3662 -0.4139  0.4515
   14TAL    C7024101   5.343   1.965   4.529  0.1724  0.5079  0.3672
   15HTM    C7124102   5.788   1.846   5.278  0.2977 -0.1235 -0.5065
   15HTM    C7224103   5.868   1.956   5.282  0.5040 -0.2589 -0.9122
   15HTM    C7324104   5.997   1.932   5.342  0.4306 -0.2615 -0.7541
   15HTM    C7424105   6.015   1.804   5.384  0.1683 -0.1283 -0.2279
   15HTM     S824106   5.869   1.703   5.351 -0.0075  0.0120  0.1114
   16TAL    C7524107   6.090   2.052   5.351  0.4984 -0.6809 -1.2112
   16TAL    C7624108   6.098   2.116   5.487 -0.0780 -1.0057  0.3872
   16TAL    C7724109   6.207   2.229   5.483  0.2832 -0.1823  0.4177
   16TAL    C7824110   6.247   2.297   5.612  0.6447 -0.3028  0.7131
   16TAL    C7924111   6.270   2.211   5.740 -0.1101  0.2425  0.5579
   16TAL    C8024112   6.321   2.296   5.853 -0.0439  0.0915 -0.0091
   17HTM    C8124113   6.117   1.740   5.462 -0.1034 -0.3064 -0.0401
   17HTM    C8224114   6.095   1.639   5.550  0.0753 -0.4609 -0.1714
   17HTM    C8324115   6.213   1.594   5.619  0.1013 -0.1240  0.0055
   17HTM    C8424116   6.326   1.661   5.583 -0.0567  0.2877  0.2712
   17HTM     S924117   6.291   1.788   5.459 -0.2530  0.2814  0.3198
   18TAL    C8524118   6.194   1.478   5.718  0.0476  0.4956 -0.1909
   18TAL    C8624119   6.229   1.344   5.646 -0.7285  0.1354  0.2349
   18TAL    C8724120   6.223   1.221   5.741 -0.5664  0.1008  0.0692
   18TAL    C8824121   6.328   1.231   5.860 -0.5113  0.4830 -0.3422
   18TAL    C8924122   6.343   1.099   5.936  0.6815  0.5817 -0.4030
   18TAL    C9024123   6.433   1.107   6.061  0.5332 -0.1877  0.2409
   19HTM    C9124124   6.461   1.640   5.632  0.2571  0.1950  0.4023
   19HTM    C9224125   6.547   1.740   5.665  0.4730 -0.0305  0.5283
   19HTM    C9324126   6.671   1.694   5.722  0.3922 -0.3703  0.4320
   19HTM    C9424127   6.680   1.559   5.732  0.1141 -0.4040  0.2323
   19HTM    S1024128   6.531   1.478   5.670 -0.0685 -0.0061  0.1495
   20TAL    C9524129   6.775   1.793   5.766  0.2786 -0.5104  0.2075
   20TAL    C9624130   6.853   1.852   5.653 -0.9468  0.2458 -0.0747
   20TAL    C9724131   6.973   1.777   5.585  0.0963 -0.8687 -0.9432
   20TAL    C9824132   7.101   1.798   5.662 -0.1711  0.1916  0.1712
   20TAL    C9924133   7.221   1.765   5.576  0.1753 -0.2958  0.0068
   20TAL   C10024134   7.354   1.784   5.649 -0.0787 -0.4701  0.1085
   21HTM   C10124135   6.783   1.475   5.790  0.4357 -0.0534  0.1724
   21HTM   C10224136   6.874   1.501   5.888  0.3154 -0.6435  0.4489
   21HTM   C10324137   6.963   1.391   5.915 -0.1452 -1.0433  0.3619
   21HTM   C10424138   6.940   1.281   5.838 -0.3768 -0.7580  0.0195
   21HTM    S1124139   6.803   1.308   5.724 -0.0280  0.0440 -0.2221
   22TAL   C10524140   7.077   1.417   6.010  0.7600  0.1071  0.5022
   22TAL   C10624141   7.208   1.471   5.952  0.0223  0.6271  0.2070
   22TAL   C10724142   7.340   1.482   6.036  0.2612  0.0868 -0.4607
   22TAL   C10824143   7.362   1.366   6.133 -0.7089  0.0336 -0.0219
   22TAL   C10924144   7.484   1.389   6.220  0.4396 -0.5844  0.0915
   22TAL   C11024145   7.506   1.269   6.308 -0.0954  0.1882 -0.3087
   23HTM   C11124146   7.007   1.150   5.831 -0.2026  0.0956  0.0740
   23HTM   C11224147   6.969   1.059   5.738 -0.4158  0.2632 -0.0050
   23HTM   C11324148   7.074   0.968   5.700 -0.5324  0.2626 -0.3278
   23HTM   C11424149   7.192   0.990   5.764 -0.4083  0.0944 -0.4954
   23HTM    S1224150   7.179   1.129   5.879 -0.1322 -0.0775 -0.2566
   24TAL   C11524151   7.062   0.868   5.587 -0.3016 -0.4286  0.1612
   24TAL   C11624152   6.931   0.862   5.505  0.4726 -0.2751 -0.2578
   24TAL   C11724153   6.916   0.780   5.376 -0.0256  0.2361 -0.4410
   24TAL   C11824154   7.035   0.780   5.283 -0.9252  0.4332  0.5830
   24TAL   C11924155   7.065   0.923   5.234 -0.6399  0.0239  0.0675
   24TAL   C12024156   7.192   0.947   5.140  0.4429 -0.1124  0.5263
   25HTM   C12124157   7.328   0.942   5.735  0.1340  0.8878  0.5532
   25HTM   C12224158   7.399   0.967   5.621  0.1314  1.0955  0.5958
   25HTM   C12324159   7.529   0.905   5.619 -0.0780  0.6655  0.2551
   25HTM   C12424160   7.556   0.832   5.732 -0.2346  0.1298 -0.0476
   25HTM    S1324161   7.420   0.838   5.849 -0.1294  0.1270  0.0753
   26TAL   C12524162   7.613   0.924   5.492 -0.2128 -0.7328  0.3180
   26TAL   C12624163   7.547   0.942   5.357  0.3851  0.2886  0.2756
   26TAL   C12724164   7.648   0.962   5.242  0.1184  0.2407  0.3094
   26TAL   C12824165   7.570   1.007   5.118  0.0924  0.0941 -0.2162
   26TAL   C12924166   7.515   1.150   5.120  0.5380 -0.6228  0.2459
   26TAL   C13024167   7.611   1.251   5.063  0.0445  0.5169 -0.3982
   27HTM   C13124168   7.671   0.762   5.775  0.0297  0.0682  0.0303
   27HTM   C13224169   7.664   0.647   5.849  0.0901  0.0615  0.0257
   27HTM   C13324170   7.790   0.579   5.861  0.1237  0.1203  0.0105
   27HTM   C13424171   7.893   0.641   5.796  0.0883  0.1718  0.0037
   27HTM    S1424172   7.838   0.792   5.714  0.0097  0.1500  0.0161
   28TAL   C13524173   7.804   0.450   5.933 -0.3806  0.4078  0.2169
   28TAL   C13624174   7.759   0.320   5.859  0.0040  0.7086 -0.4324
   28TAL   C13724175   7.623   0.302   5.789  0.5041 -0.1641  0.3518
   28TAL   C13824176   7.630   0.181   5.689  0.8506  0.3084  0.1654
   28TAL   C13924177   7.625   0.054   5.766 -0.2663 -0.4570 -0.4731
   28TAL   C14024178   7.650  -0.083   5.695 -0.2300 -0.2463  0.0607
   29HTM   C14124179   8.028   0.602   5.784 -0.1299  0.2715  0.5881
   29HTM   C14224180   8.089   0.580   5.664 -0.3357  0.3682  0.4654
   29HTM   C14324181   8.233   0.573   5.673 -0.3300  0.1905  0.2401
   29HTM   C14424182   8.281   0.590   5.799 -0.1202 -0.0419  0.1912
   29HTM    S1524183   8.148   0.616   5.918  0.0876 -0.0543  0.4275
   30TAL   C14524184   8.328   0.556   5.550  0.5698 -0.4434  0.0312
   30TAL   C14624185   8.263   0.561   5.409 -0.2086 -0.0566 -0.5141
   30TAL   C14724186   8.341   0.508   5.285  0.4779  0.3165 -0.4483
   30TAL   C14824187   8.274   0.544   5.153  0.2707 -0.4272  0.5086
   30TAL   C14924188   8.346   0.458   5.051  0.4910 -0.5310 -0.1115
   30TAL   C15024189   8.309   0.489   4.913 -0.1094 -0.0817  0.0805
   31HTM   C15124190   8.417   0.615   5.848 -0.0681  0.1062 -0.0230
   31HTM   C15224191   8.491   0.730   5.842 -0.1507  0.1766  0.2759
   31HTM   C15324192   8.627   0.713   5.888 -0.1917  0.1984  0.4034
   31HTM   C15424193   8.656   0.586   5.929 -0.1394  0.1446  0.2019
   31HTM    S1624194   8.513   0.477   5.912 -0.0351  0.0616 -0.1673
   32TAL   C15524195   8.704   0.846   5.900 -0.5348 -0.0316 -0.0937
   32TAL   C15624196   8.803   0.881   5.783 -0.2373 -0.1406  0.0653
   32TAL   C15724197   8.758   0.882   5.637  0.2847 -0.5823 -0.5501
   32TAL   C15824198   8.753   0.749   5.565  0.4949 -0.6333  0.3993
   32TAL   C15924199   8.703   0.745   5.419 -0.2692 -0.6350  0.2516
   32TAL   C16024200   8.685   0.609   5.374 -0.1090  0.5457  0.4611
   33HTM   C16124201   8.778   0.533   5.986 -0.0412 -0.3323 -0.0438
   33HTM   C16224202   8.812   0.402   6.003  0.1931 -0.2711 -0.0377
   33HTM   C16324203   8.946   0.383   6.053  0.2594 -0.0333 -0.1223
   33HTM   C16424204   9.014   0.499   6.074  0.0757  0.0870 -0.1936
   33HTM    S1724205   8.913   0.643   6.032 -0.1974 -0.0924 -0.1579
   34TAL   C16524206   8.995   0.245   6.079 -0.3909 -0.0564  0.0000
   34TAL   C16624207   9.041   0.199   6.220  0.3213  0.4519  0.6361
   34TAL   C16724208   9.027   0.045   6.237 -0.5786  0.0317 -0.6747
   34TAL   C16824209   8.888  -0.009   6.220  0.4386  0.5725 -0.4886
   34TAL   C16924210   8.788   0.024   6.330  0.0491  0.3829  0.4841
   34TAL   C17024211   8.657  -0.063   6.305 -0.0485  0.7009  0.1590
   35HTM   C17124212   9.153   0.534   6.111  0.2263  0.2770 -0.0649
   35HTM   C17224213   9.237   0.462   6.190  0.3494  0.1947 -0.2689
   35HTM   C17324214   9.355   0.534   6.230  0.4618  0.1177 -0.4630
   35HTM   C17424215   9.361   0.661   6.180  0.4244  0.1411 -0.4076
   35HTM    S1824216   9.217   0.700   6.079  0.2429  0.2634 -0.1032
   36TAL   C17524217   9.457   0.455   6.311 -0.0327 -0.3212  0.2527
   36TAL   C17624218   9.594   0.521   6.336  0.2129 -0.0294 -0.1142
   36TAL   C17724219   9.713   0.433   6.294 -0.9020  0.1284 -0.0601
   36TAL   C17824220   9.845   0.508   6.256  0.4744  0.3040  0.4876
   36TAL   C17924221   9.839   0.601   6.140  0.2500 -0.1749 -0.4725
   36TAL   C18024222   9.979   0.661   6.115 -0.1262 -0.5807 -0.4035
   37HTM   C18124223   9.458   0.769   6.193  0.3702 -0.5738  0.1096
   37HTM   C18224224   9.528   0.827   6.294  0.6130 -0.7905  0.0689
   37HTM   C18324225   9.622   0.927   6.250  0.5071 -0.6960  0.0565
   37HTM   C18424226   9.624   0.944   6.115  0.1837 -0.4073  0.0881
   37HTM    S1924227   9.506   0.835   6.032 -0.0137 -0.2309  0.1359
   38TAL   C18524228   9.703   1.003   6.355 -0.4108  0.7133 -0.5581
   38TAL   C18624229   9.785   0.905   6.442 -0.1680  0.6417 -0.5202
   38TAL   C18724230   9.860   0.974   6.562 -0.3381 -0.1630  0.9069
   38TAL   C18824231   9.978   0.887   6.619  0.4162 -0.2828  0.0095
   38TAL   C18924232  10.032   0.937   6.746  0.2714 -0.2282  0.2269
   38TAL   C19024233  10.118   0.826   6.812 -0.8308 -0.2603  0.0548
   39HTM   C19124234   9.698   1.040   6.029  0.1163 -0.1889 -0.7232
   39HTM   C19224235   9.659   1.084   5.906  0.5059  0.1329 -0.7322
   39HTM   C19324236   9.753   1.174   5.845  0.7133  0.2781 -0.2084
   39HTM   C19424237   9.864   1.198   5.921  0.4819  0.0670  0.1991
   39HTM    S2024238   9.858   1.108   6.077 -0.0198 -0.3346 -0.0481
   40TAL   C19524239   9.709   1.220   5.707 -0.3446  0.5158 -0.1793
   40TAL   C19624240   9.685   1.369   5.692  0.5728 -0.3970 -0.0757
   40TAL   C19724241   9.569   1.431   5.773 -0.3177 -1.1108 -0.3591
   40TAL   C19824242   9.579   1.578   5.804 -0.1618 -0.2215  0.1757
   40TAL   C19924243   9.657   1.593   5.929 -0.4541  0.2840 -0.3543
   40TAL   C20024244   9.664   1.737   5.975 -0.3407 -0.1393 -0.5778
   41HTM   C20124245   9.963   1.304   5.905  0.1710 -0.2335  0.1700
   41HTM   C20224246  10.060   1.318   5.811 -0.0377 -0.2880 -0.0551
   41HTM   C20324247  10.148   1.430   5.834 -0.1528 -0.1089 -0.4654
   41HTM   C20424248  10.118   1.501   5.947 -0.0320  0.0822 -0.5535
   41HTM    S2124249   9.974   1.432   6.032  0.2387  0.0506 -0.1215
   42TAL   C20524250  10.260   1.466   5.738 -0.0668 -0.0730 -0.7345
   42TAL   C20624251  10.214   1.543   5.619  0.0084  0.1586 -0.2782
   42TAL   C20724252  10.305   1.598   5.511  0.7887  0.4587 -0.5940
   42TAL   C20824253  10.433   1.681   5.546  0.2331 -0.3209 -0.2583
   42TAL   C20924254  10.418   1.817   5.613  0.8858 -0.0268 -0.2465
   42TAL   C21024255  10.340   1.917   5.540  0.0582  0.1689 -0.5738
   43HTM   C21124256  10.168   1.619   6.014 -0.5097 -0.2133  0.2474
   43HTM   C21224257  10.223   1.733   5.964 -0.6507 -0.2523  0.0067
   43HTM   C21324258  10.245   1.835   6.062 -0.3188 -0.1987 -0.1228
   43HTM   C21424259  10.208   1.799   6.188  0.0754 -0.1189  0.0184
   43HTM    S2224260  10.141   1.632   6.192  0.0577 -0.1050  0.3292
   44TAL   C21524261  10.334   1.955   6.029 -0.6898 -0.3036 -0.3767
   44TAL   C21624262  10.268   2.047   5.931 -0.3191 -0.0654  0.0570
   44TAL   C21724263  10.330   2.182   5.903 -0.2915  0.2408 -0.0198
   44TAL   C21824264  10.473   2.182   5.855  0.1838 -0.3993 -0.5796
   44TAL   C21924265  10.536   2.316   5.846 -0.1324 -0.9624  0.4430
   44TAL   C22024266  10.681   2.316   5.805  0.2976  0.9308  0.6026
   45HTM   C22124267  10.203   1.868   6.314  0.4024  0.1146 -0.1348
   45HTM   C22224268  10.246   1.827   6.437  0.3123  0.1565 -0.0889
   45HTM   C22324269  10.205   1.913   6.545  0.1056  0.1094 -0.1311
   45HTM   C22424270  10.129   2.019   6.504  0.0379  0.0315 -0.2096
   45HTM    S2324271  10.105   2.019   6.325  0.2317  0.0115 -0.2362
   46TAL   C22524272  10.259   1.887   6.684  0.5465 -0.0079  0.1473
   46TAL   C22624273  10.402   1.929   6.720  0.9180 -0.3807  0.4979
   46TAL   C22724274  10.443   1.922   6.865 -0.1676  0.1087  0.1125
   46TAL   C22824275  10.392   2.034   6.950 -0.1493 -0.2852 -0.4278
   46TAL   C22924276  10.472   2.045   7.084  0.2564  0.0901 -0.0572
   46TAL   C23024277  10.435   2.177   7.153 -0.1963  0.4368 -1.0054
   47HTM   C23124278  10.057   2.117   6.577  0.3010  0.3556  0.0609
   47HTM   C23224279   9.959   2.192   6.520  0.4999  0.6237  0.0696
   47HTM   C23324280   9.889   2.276   6.614  0.4882  0.5347  0.1411
   47HTM   C23424281   9.934   2.265   6.742  0.2804  0.1986  0.1875
   47HTM    S2424282  10.069   2.147   6.755  0.0818 -0.0333  0.1431
   48TAL   C23524283   9.782   2.375   6.572 -0.6526 -0.5077  0.0173
   48TAL   C23624284   9.825   2.450   6.441 -0.3697  0.7483 -0.7247
   48TAL   C23724285   9.714   2.540   6.384 -0.2073  0.1891 -0.1541
   48TAL   C23824286   9.759   2.642   6.276 -0.2159 -0.4465  0.0824
   48TAL   C23924287   9.648   2.747   6.239  0.0653  0.1387  0.6070
   48TAL   C24024288   9.582   2.815   6.350  0.0674  0.0164 -0.3520
    1HTM     C124289   8.562   4.891   1.658 -0.1396 -0.1884 -0.0263
    1HTM     C224290   8.524   4.894   1.527 -0.0987 -0.0999 -0.0364
    1HTM     C324291   8.627   4.852   1.436  0.0086  0.1936 -0.0504
    1HTM     C424292   8.744   4.817   1.497  0.0500  0.3287 -0.0507
    1HTM     S124293   8.733   4.835   1.676 -0.0451  0.0945 -0.0334
    2TAL     C524294   8.601   4.856   1.289  0.5598  0.3737  0.0111
    2TAL     C624295   8.503   4.752   1.227  0.4322  0.8295  0.1555
    2TAL     C724296   8.533   4.599   1.233 -0.9560 -0.1886  0.4800
    2TAL     C824297   8.421   4.521   1.162 -0.2167  0.5127  0.2519
    2TAL     C924298   8.442   4.377   1.124 -0.5918  0.4594 -0.7179
    2TAL    C1024299   8.324   4.283   1.099 -0.2310  0.3060 -0.3014
    3HTM    C1124300   8.873   4.773   1.442 -0.4123 -0.4849 -0.0350
    3HTM    C1224301   8.993   4.764   1.505 -0.4463 -0.1738  0.0731
    3HTM    C1324302   9.103   4.734   1.417 -0.2694  0.2279  0.1522
    3HTM    C1424303   9.066   4.719   1.286 -0.1013  0.2231  0.1046
    3HTM     S224304   8.888   4.743   1.265 -0.1532 -0.2930 -0.0454
    4TAL    C1524305   9.240   4.722   1.485 -0.9328 -0.1064  0.3193
    4TAL    C1624306   9.243   4.646   1.615 -0.6205  0.3827  0.1298
    4TAL    C1724307   9.361   4.642   1.709 -0.1130  0.4791 -0.6360
    4TAL    C1824308   9.488   4.584   1.653 -0.6811 -0.1462  0.7323
    4TAL    C1924309   9.599   4.592   1.763 -0.3791  0.3070 -0.1140
    4TAL    C2024310   9.737   4.582   1.697  0.4932  0.2237  0.3897
    5HTM    C2124311   9.145   4.693   1.174 -0.0201  0.0419 -0.0176
    5HTM    C2224312   9.135   4.592   1.082  0.0727  0.0601 -0.0476
    5HTM    C2324313   9.246   4.587   0.990  0.0993  0.1624 -0.0220
    5HTM    C2424314   9.340   4.683   1.011  0.0267  0.2222  0.0276
    5HTM     S324315   9.296   4.789   1.150 -0.0816  0.1536  0.0459
    6TAL    C2524316   9.258   4.487   0.878  0.1263  0.8029  0.4138
    6TAL    C2624317   9.323   4.350   0.905  0.4504  0.0977 -0.0299
    6TAL    C2724318   9.249   4.247   0.989  0.0664 -0.2542 -0.0237
    6TAL    C2824319   9.318   4.120   1.024  0.2525 -0.1669 -0.1294
    6TAL    C2924320   9.211   4.046   1.103  0.1450 -0.2857 -0.1970
    6TAL    C3024321   9.266   3.923   1.168 -0.7354 -0.0057 -0.5262
    7HTM    C3124322   9.473   4.716   0.965  0.3005  0.0809 -0.0455
    7HTM    C3224323   9.547   4.644   0.877  0.1694  0.2685 -0.3119
    7HTM    C3324324   9.684   4.689   0.865  0.1318  0.3405 -0.4757
    7HTM    C3424325   9.713   4.796   0.945  0.2342  0.2077 -0.3343
    7HTM     S424326   9.570   4.848   1.041  0.3874 -0.0202  0.0196
    8TAL    C3524327   9.777   4.630   0.769  0.2010 -0.7128  0.2070
    8TAL    C3624328   9.714   4.588   0.635  0.1478  0.4715 -0.3932
    8TAL    C3724329   9.679   4.705   0.550  0.2439  0.0577 -0.0536
    8TAL    C3824330   9.589   4.667   0.426  0.2324 -0.3283 -0.0329
    8TAL    C3924331   9.446   4.612   0.442 -0.4374  0.0435 -0.1108
    8TAL    C4024332   9.361   4.672   0.550 -0.0849 -0.0136 -0.4132
    9HTM    C4124333   9.833   4.874   0.962  0.3745  0.4513 -0.3121
    9HTM    C4224334   9.851   5.004   0.926  0.8063  0.3464 -0.4818
    9HTM    C4324335   9.975   5.061   0.972  0.9300  0.0396 -0.4336
    9HTM    C4424336  10.052   4.974   1.044  0.5926 -0.0893 -0.2272
    9HTM     S524337   9.973   4.813   1.059  0.0884  0.1686 -0.0765
   10TAL    C4524338  10.021   5.198   0.917 -0.4369  0.1616  0.3818
   10TAL    C4624339   9.944   5.328   0.956  0.4716 -0.6800 -0.1482
   10TAL    C4724340   9.800   5.336   0.903 -0.0509  0.2892 -0.0397
   10TAL    C4824341   9.757   5.479   0.932 -0.2721 -0.1381  0.1284
   10TAL    C4924342   9.620   5.522   0.878 -0.3413 -0.0562 -0.0390
   10TAL    C5024343   9.592   5.667   0.909  0.2102  0.4386 -0.5695
   11HTM    C5124344  10.182   4.977   1.118 -0.1160 -0.1542  0.4153
   11HTM    C5224345  10.244   4.870   1.177  0.0892 -0.0918  0.3139
   11HTM    C5324346  10.380   4.896   1.215  0.1301  0.0434  0.0798
   11HTM    C5424347  10.422   5.022   1.186 -0.0440  0.0839  0.0027
   11HTM     S624348  10.292   5.119   1.107 -0.2749 -0.0461  0.2214
   12TAL    C5524349  10.453   4.789   1.289  0.0821 -0.2988 -0.3565
   12TAL    C5624350  10.390   4.756   1.429 -0.4903  0.0652  0.5417
   12TAL    C5724351  10.451   4.650   1.519 -0.2093 -0.1866 -0.5219
   12TAL    C5824352  10.582   4.680   1.582 -0.2699  0.6125  0.2066
   12TAL    C5924353  10.659   4.554   1.628 -0.4387  0.2912 -0.0393
   12TAL    C6024354  10.788   4.593   1.703  0.6888 -0.1530  0.0608
   13HTM    C6124355  10.550   5.083   1.204  0.1125 -0.2698  0.4165
   13HTM    C6224356  10.582   5.213   1.228 -0.0361 -0.1736  0.0950
   13HTM    C6324357  10.723   5.239   1.228 -0.0733  0.0317 -0.1912
   13HTM    C6424358  10.800   5.129   1.204  0.0470  0.0922 -0.0879
   13HTM     S724359  10.698   4.982   1.179  0.2178 -0.1067  0.3826
   14TAL    C6524360  10.782   5.381   1.245  0.2812  0.5074  0.2044
   14TAL    C6624361  10.689   5.501   1.248  0.0858 -0.2659  0.0452
   14TAL    C6724362  10.769   5.630   1.253  0.0050  0.5481 -0.3866
   14TAL    C6824363  10.689   5.753   1.283  0.5190 -0.5527 -0.1839
   14TAL    C6924364  10.770   5.886   1.271  0.2659  0.4689  0.0468
   14TAL    C7024365  10.695   6.001   1.336 -0.3778  0.3818 -0.1786
   15HTM    C7124366  10.942   5.116   1.194  0.2630 -0.1771  0.0027
   15HTM    C7224367  11.032   5.125   1.296  0.3116 -0.0842 -0.0476
   15HTM    C7324368  11.169   5.113   1.254  0.2899 -0.1576 -0.0985
   15HTM    C7424369  11.184   5.096   1.119  0.2248 -0.3072 -0.0870
   15HTM     S824370  11.025   5.093   1.035  0.1851 -0.3666 -0.0103
   16TAL    C7524371  11.269   5.119   1.366  0.7072 -0.5154 -0.1120
   16TAL    C7624372  11.416   5.068   1.357 -0.2202 -0.1555  0.7074
   16TAL    C7724373  11.424   4.918   1.332  0.6093  0.0091  0.0022
   16TAL    C7824374  11.569   4.881   1.297  0.8517 -0.1010  0.6493
   16TAL    C7924375  11.580   4.734   1.301  0.9356 -0.4758 -0.1547
   16TAL    C8024376  11.708   4.690   1.337 -0.4191 -0.2494 -0.1753
   17HTM    C8124377  11.300   5.087   1.034 -0.0323  0.1873  0.3457
   17HTM    C8224378  11.357   4.972   0.989 -0.0737  0.0634  0.6054
   17HTM    C8324379  11.484   4.992   0.924 -0.0368 -0.1364  0.6144
   17HTM    C8424380  11.523   5.123   0.920  0.0327 -0.1649  0.3616
   17HTM     S924381  11.402   5.231   0.998  0.0570  0.0604  0.0903
   18TAL    C8524382  11.567   4.884   0.857  0.7657 -0.0755 -0.3600
   18TAL    C8624383  11.527   4.747   0.907  0.1084 -0.0113 -0.3258
   18TAL    C8724384  11.616   4.646   0.826 -0.0441 -0.3186  0.9025
   18TAL    C8824385  11.614   4.508   0.881  0.4845  0.3813  0.1317
   18TAL    C8924386  11.715   4.432   0.792  0.2725  0.2054 -0.3782
   18TAL    C9024387  11.681   4.283   0.800  0.0475 -0.2626 -0.2872
   19HTM    C9124388  11.642   5.190   0.872 -0.2294  0.1191  0.0192
   19HTM    C9224389  11.716   5.157   0.763 -0.6350  0.1702 -0.2745
   19HTM    C9324390  11.824   5.249   0.736 -0.5873  0.0520 -0.4916
   19HTM    C9424391  11.832   5.352   0.825 -0.1452 -0.0897 -0.3636
   19HTM    S1024392  11.702   5.341   0.950  0.2481 -0.0842  0.0444
   20TAL    C9524393  11.899   5.230   0.606  1.0070  0.2391  0.0192
   20TAL    C9624394  12.026   5.144   0.608  0.6980 -0.2579  0.6310
   20TAL    C9724395  12.114   5.180   0.497  0.7682 -0.1522 -0.3270
   20TAL    C9824396  12.241   5.102   0.501  0.5754 -0.2290 -0.5411
   20TAL    C9924397  12.339   5.156   0.401 -0.0040 -0.2833  0.1803
   20TAL   C10024398  12.464   5.081   0.402 -0.5297  0.2837 -0.6738
   21HTM   C10124399  11.930   5.460   0.838  0.0881 -0.0770 -0.6363
   21HTM   C10224400  11.906   5.579   0.901  0.0534 -0.0637 -0.6744
   21HTM   C10324401  12.022   5.663   0.912  0.1190 -0.1955 -0.3470
   21HTM   C10424402  12.135   5.608   0.857  0.2039 -0.3087 -0.0592
   21HTM    S1124403  12.102   5.445   0.788  0.2073 -0.2577 -0.1804
   22TAL   C10524404  12.018   5.806   0.969 -0.0713  0.0859  0.2159
   22TAL   C10624405  11.887   5.876   1.010  0.7295 -0.3474 -0.6939
   22TAL   C10724406  11.833   5.810   1.135  0.2215  0.1177  0.1207
   22TAL   C10824407  11.694   5.872   1.176  0.3877 -0.9127  0.0074
   22TAL   C10924408  11.583   5.859   1.078 -0.4356  0.3719  0.3416
   22TAL   C11024409  11.446   5.913   1.124  0.6282 -0.1158 -0.6257
   23HTM   C11124410  12.273   5.652   0.869  0.3351  0.0681  0.0527
   23HTM   C11224411  12.333   5.744   0.789  0.3177  0.1605  0.1450
   23HTM   C11324412  12.472   5.768   0.822  0.2922  0.2105  0.2174
   23HTM   C11424413  12.517   5.694   0.927  0.2900  0.1564  0.1804
   23HTM    S1224414  12.387   5.588   0.993  0.3203  0.0374  0.0501
   24TAL   C11524415  12.560   5.861   0.731 -0.0446  0.7475 -0.5957
   24TAL   C11624416  12.493   5.944   0.625 -0.2791 -0.0245  1.2744
   24TAL   C11724417  12.409   6.064   0.682  0.0168  0.3214  0.2566
   24TAL   C11824418  12.315   6.127   0.580 -0.8375  0.4018 -0.0171
   24TAL   C11924419  12.225   6.032   0.493  0.2871  0.2746  0.0216
   24TAL   C12024420  12.106   5.986   0.579 -0.0613  0.1543 -0.3533
   25HTM   C12124421  12.640   5.679   0.997 -0.0577 -0.0080  0.3160
   25HTM   C12224422  12.750   5.601   0.978 -0.0055  0.0660  0.3125
   25HTM   C12324423  12.836   5.592   1.094  0.0397  0.1788  0.2878
   25HTM   C12424424  12.791   5.664   1.201  0.0220  0.1906  0.2724
   25HTM    S1324425  12.637   5.748   1.164 -0.0537  0.0596  0.2881
   26TAL   C12524426  12.959   5.501   1.073  0.5887  0.4161  0.0695
   26TAL   C12624427  13.086   5.529   1.151 -0.0311  0.2907  0.2698
   26TAL   C12724428  13.188   5.418   1.154 -0.2204 -0.4954  0.5367
   26TAL   C12824429  13.305   5.429   1.256  0.0815 -0.0469 -0.3540
   26TAL   C12924430  13.384   5.302   1.280  0.1468  0.3086  0.3310
   26TAL   C13024431  13.514   5.315   1.353 -0.0630  0.1430  0.2842
   27HTM   C13124432  12.843   5.677   1.335 -0.5265 -0.0073  0.1235
   27HTM   C13224433  12.845   5.581   1.432 -0.8786  0.1290  0.2685
   27HTM   C13324434  12.872   5.632   1.564 -0.5670  0.2162  0.1726
   27HTM   C13424435  12.890   5.767   1.567  0.0228  0.1467 -0.0455
   27HTM    S1424436  12.875   5.840   1.403  0.2319 -0.0361 -0.1476
   28TAL   C13524437  12.882   5.523   1.673  0.4457  0.1911 -0.3087
   28TAL   C13624438  12.744   5.475   1.723 -0.1546  0.4646  1.1041
   28TAL   C13724439  12.691   5.351   1.651 -0.3147  0.5157  0.4620
   28TAL   C13824440  12.540   5.326   1.677 -0.3651 -0.5863  0.1042
   28TAL   C13924441  12.473   5.204   1.616 -0.5761 -1.2853  0.3633
   28TAL   C14024442  12.528   5.068   1.634  0.0514 -0.4271 -0.0605
   29HTM   C14124443  12.908   5.863   1.673  0.2736  0.2151 -0.6179
   29HTM   C14224444  12.870   5.856   1.804  0.0396 -0.1161 -0.7013
   29HTM   C14324445  12.909   5.971   1.881 -0.1982 -0.2601 -0.3668
   29HTM   C14424446  12.976   6.066   1.810 -0.1457 -0.0392 -0.0283
   29HTM    S1524447  12.996   6.016   1.637  0.2112  0.3718 -0.1065
   30TAL   C14524448  12.867   5.995   2.029 -0.3215  0.1122 -0.0990
   30TAL   C14624449  12.730   5.936   2.069 -0.3789 -0.7165  0.5773
   30TAL   C14724450  12.706   5.958   2.212  0.4772  0.0483 -0.3146
   30TAL   C14824451  12.575   5.916   2.267  0.0110 -0.2735  0.1994
   30TAL   C14924452  12.553   5.910   2.420 -0.0703  0.4034  0.1840
   30TAL   C15024453  12.497   6.038   2.465  0.6554 -0.2673 -0.4229
   31HTM   C15124454  13.034   6.189   1.854  0.2968 -0.1051 -0.2744
   31HTM   C15224455  12.996   6.317   1.824  0.0528 -0.1082  0.0132
   31HTM   C15324456  13.085   6.418   1.875 -0.1690 -0.0503  0.2865
   31HTM   C15424457  13.191   6.367   1.945 -0.0943 -0.0033  0.2074
   31HTM    S1624458  13.186   6.187   1.951  0.2650 -0.0282 -0.2217
   32TAL   C15524459  13.052   6.567   1.861  0.0238  0.5445 -0.1982
   32TAL   C15624460  12.965   6.626   1.971 -0.0733 -0.3424  0.2505
   32TAL   C15724461  12.950   6.774   1.945  0.1115 -0.0445 -0.1000
   32TAL   C15824462  12.846   6.826   2.038 -0.6372  0.1446  0.4695
   32TAL   C15924463  12.806   6.968   1.999 -0.5278  0.1150  0.4445
   32TAL   C16024464  12.689   7.011   2.086 -0.0761 -0.3117  0.5546
   33HTM   C16124465  13.306   6.435   2.008 -0.1147  0.0561 -0.2077
   33HTM   C16224466  13.422   6.366   2.027 -0.1748 -0.0343 -0.1632
   33HTM   C16324467  13.536   6.451   2.049 -0.1333 -0.1245 -0.0235
   33HTM   C16424468  13.507   6.584   2.046 -0.0418 -0.1030  0.0384
   33HTM    S1724469  13.331   6.613   2.016 -0.0007  0.0344 -0.0760
   34TAL   C16524470  13.673   6.391   2.077  0.1124  0.2368 -0.3564
   34TAL   C16624471  13.695   6.240   2.076 -0.4347  0.0988 -0.2623
   34TAL   C16724472  13.726   6.178   1.938  0.4000  0.0925 -0.9230
   34TAL   C16824473  13.708   6.028   1.927 -0.3060 -0.1564  0.1667
   34TAL   C16924474  13.733   5.967   1.790  0.4258  0.1636  0.5305
   34TAL   C17024475  13.619   5.985   1.686  0.3978  0.3780 -0.1288
   35HTM   C17124476  13.585   6.704   2.076 -0.0452  0.1225  0.0553
   35HTM   C17224477  13.542   6.832   2.057  0.0417  0.1523  0.0613
   35HTM   C17324478  13.638   6.931   2.097  0.0527  0.0858  0.2003
   35HTM   C17424479  13.754   6.879   2.146 -0.0260  0.0055  0.3000
   35HTM    S1824480  13.751   6.699   2.146 -0.1206  0.0073  0.2258
   36TAL   C17524481  13.608   7.082   2.095 -0.0969 -0.0671 -0.6711
   36TAL   C17624482  13.582   7.137   1.958  0.2517 -0.0243  0.1911
   36TAL   C17724483  13.696   7.148   1.857  0.1454  0.6053 -0.2327
   36TAL   C17824484  13.685   7.238   1.736 -0.2789  0.1761 -0.2637
   36TAL   C17924485  13.669   7.388   1.762  0.0373 -0.4142  0.4297
   36TAL   C18024486  13.596   7.460   1.646 -0.2714 -0.2359  0.6393
   37HTM   C18124487  13.876   6.943   2.199  0.5198 -0.4642  0.4268
   37HTM   C18224488  13.972   6.865   2.257  0.9017  0.0267  0.4578
   37HTM   C18324489  14.086   6.939   2.303  0.7203  0.5579  0.0671
   37HTM   C18424490  14.077   7.074   2.282  0.2004  0.4724 -0.2616
   37HTM    S1924491  13.922   7.117   2.200 -0.1032 -0.2920 -0.1019
   38TAL   C18524492  14.197   6.852   2.361  0.3091  0.4369 -0.1084
   38TAL   C18624493  14.189   6.785   2.495  0.1113  0.4023  0.2001
   38TAL   C18724494  14.098   6.664   2.511 -0.4958  0.6705  0.0688
   38TAL   C18824495  14.135   6.573   2.631  0.1751  0.3549  0.0940
   38TAL   C18924496  14.026   6.475   2.663  0.1919  0.1080 -0.3572
   38TAL   C19024497  14.001   6.344   2.579 -0.0326 -0.6208  0.5443
   39HTM   C19124498  14.173   7.183   2.317  0.3304 -0.0826 -0.3336
   39HTM   C19224499  14.254   7.186   2.427  0.6604 -0.3407 -0.5655
   39HTM   C19324500  14.313   7.315   2.452  0.3822 -0.2825 -0.1923
   39HTM   C19424501  14.278   7.410   2.361 -0.1594  0.0196  0.3243
   39HTM    S2024502  14.167   7.344   2.235 -0.3620  0.2555  0.3798
   40TAL   C19524503  14.401   7.333   2.570 -0.0443  0.4887 -0.0538
   40TAL   C19624504  14.537   7.261   2.566 -0.0929  0.2733 -0.4729
   40TAL   C19724505  14.650   7.318   2.660  0.2692  0.2932 -0.2702
   40TAL   C19824506  14.786   7.250   2.680  0.6557 -0.2340  0.0026
   40TAL   C19924507  14.878   7.349   2.746  0.1815 -0.5474  0.0458
   40TAL   C20024508  15.026   7.308   2.754 -0.2556  0.1638  0.3918
   41HTM   C20124509  14.296   7.555   2.359 -0.2152  0.0522  0.1850
   41HTM   C20224510  14.254   7.643   2.264 -0.8523 -0.2139  0.2083
   41HTM   C20324511  14.264   7.781   2.305 -1.2896 -0.1271  0.0297
   41HTM   C20424512  14.313   7.797   2.431 -0.9861  0.2058 -0.1297
   41HTM    S2124513  14.351   7.639   2.509 -0.1178  0.4367 -0.0660
   42TAL   C20524514  14.224   7.892   2.210  0.2106 -0.1565 -0.4878
   42TAL   C20624515  14.252   7.867   2.061 -0.1953  0.1226 -0.5853
   42TAL   C20724516  14.398   7.857   2.023  0.1722 -0.0493  0.4698
   42TAL   C20824517  14.412   7.802   1.880 -0.0136  0.2638  0.1967
   42TAL   C20924518  14.512   7.698   1.851  0.1287 -0.3586  0.2262
   42TAL   C21024519  14.500   7.560   1.913  0.4137  0.4254 -0.2039
   43HTM   C21124520  14.332   7.925   2.499 -0.0671  0.2425  0.1019
   43HTM   C21224521  14.435   8.012   2.480  0.1137  0.0796  0.3340
   43HTM   C21324522  14.422   8.135   2.554  0.2203  0.0353  0.4271
   43HTM   C21424523  14.309   8.142   2.629  0.1205  0.1644  0.2659
   43HTM    S2224524  14.209   7.992   2.612 -0.1179  0.3542 -0.0183
   44TAL   C21524525  14.528   8.244   2.539  0.4843 -0.3895 -1.2300
   44TAL   C21624526  14.667   8.220   2.579 -0.2470  0.3322 -0.2219
   44TAL   C21724527  14.753   8.343   2.595  0.2547 -0.1675  0.1048
   44TAL   C21824528  14.901   8.299   2.603  0.3729  0.2427  0.7100
   44TAL   C21924529  14.984   8.403   2.671  0.0615  0.1796  0.0819
   44TAL   C22024530  15.133   8.389   2.639  0.3472  0.5132 -0.5179
   45HTM   C22124531  14.269   8.233   2.731  0.0528 -0.2369  0.1425
   45HTM   C22224532  14.341   8.330   2.794  0.1638 -0.1945 -0.0480
   45HTM   C22324533  14.261   8.420   2.873  0.2766 -0.0029 -0.1513
   45HTM   C22424534  14.128   8.392   2.870  0.2518  0.1016 -0.0394
   45HTM    S2324535  14.093   8.248   2.766  0.0826 -0.0357  0.2069
   46TAL   C22524536  14.334   8.528   2.952 -0.0798 -0.0860  0.2646
   46TAL   C22624537  14.322   8.666   2.878 -0.4381 -0.2552  0.0985
   46TAL   C22724538  14.368   8.779   2.966 -0.2809 -0.5832 -0.0169
   46TAL   C22824539  14.308   8.914   2.925  0.3163  0.2028  0.7632
   46TAL   C22924540  14.335   9.027   3.021  0.2090 -0.0228 -0.3708
   46TAL   C23024541  14.475   9.073   3.042 -1.0352 -0.3263  0.1399
   47HTM   C23124542  14.007   8.443   2.942 -0.3602 -0.0441 -0.1364
   47HTM   C23224543  13.919   8.371   3.018 -0.2687 -0.1917 -0.1693
   47HTM   C23324544  13.831   8.453   3.098 -0.2432 -0.3443  0.0165
   47HTM   C23424545  13.852   8.587   3.083 -0.3151 -0.3130  0.1910
   47HTM    S2424546  13.985   8.620   2.966 -0.4215 -0.0872  0.1337
   48TAL   C23524547  13.727   8.394   3.193  0.2654 -0.0828  0.0971
   48TAL   C23624548  13.623   8.485   3.270  0.9672  0.2647  0.1651
   48TAL   C23724549  13.520   8.564   3.186 -0.2586  0.1790  0.2282
   48TAL   C23824550  13.466   8.685   3.269  0.5105  0.4078 -0.2188
   48TAL   C23924551  13.390   8.786   3.187 -0.0992  0.6033 -0.6721
   48TAL   C24024552  13.485   8.858   3.089  0.2987 -0.2235 -1.1485
    1HTM     C124553   4.976   5.870   1.468 -0.1183 -0.0978 -0.0924
    1HTM     C224554   4.968   6.006   1.476 -0.0896 -0.1049  0.0603
    1HTM     C324555   5.094   6.073   1.463 -0.0832 -0.1137  0.0750
    1HTM     C424556   5.200   5.989   1.444 -0.1070 -0.1132 -0.0665
    1HTM     S124557   5.147   5.816   1.442 -0.1400 -0.1018 -0.2306
    2TAL     C524558   5.110   6.218   1.478 -0.9581  0.0104 -0.5511
    2TAL     C624559   5.087   6.286   1.615 -0.3219  0.0846  0.3770
    2TAL     C724560   5.144   6.422   1.627  0.3316 -0.2688 -0.1487
    2TAL     C824561   5.295   6.450   1.617 -0.1507 -0.1460  0.6576
    2TAL     C924562   5.319   6.600   1.613 -0.2240 -0.0755  0.6578
    2TAL    C1024563   5.457   6.660   1.602 -0.4477 -0.1444  0.4211
    3HTM    C1124564   5.339   6.010   1.417 -0.5372  0.1610  0.2615
    3HTM    C1224565   5.423   5.918   1.361 -0.5963  0.1435  0.2017
    3HTM    C1324566   5.558   5.965   1.347 -0.6118  0.1416  0.0383
    3HTM    C1424567   5.578   6.092   1.393 -0.5648  0.1583 -0.0264
    3HTM     S224568   5.425   6.163   1.457 -0.4967  0.1769  0.1152
    4TAL    C1524569   5.670   5.875   1.303 -0.2470  0.4248 -0.2197
    4TAL    C1624570   5.643   5.809   1.170  0.1877  0.5080 -0.1643
    4TAL    C1724571   5.760   5.731   1.127 -0.3005 -0.0822 -0.0959
    4TAL    C1824572   5.746   5.642   1.008  0.4570  0.8150  0.0200
    4TAL    C1924573   5.887   5.595   0.970 -0.5449 -0.0972 -0.1617
    4TAL    C2024574   5.887   5.467   0.897  0.3461  0.0540 -0.0451
    5HTM    C2124575   5.690   6.183   1.397  0.0607  0.3198 -0.0345
    5HTM    C2224576   5.690   6.320   1.402  0.1681  0.3181  0.0083
    5HTM    C2324577   5.822   6.377   1.406  0.2143  0.2136 -0.0184
    5HTM    C2424578   5.922   6.284   1.405  0.1417  0.1359 -0.0813
    5HTM     S324579   5.857   6.116   1.398  0.0085  0.1890 -0.1122
    6TAL    C2524580   5.836   6.532   1.411 -0.4648  0.0194 -0.1531
    6TAL    C2624581   5.823   6.600   1.272  0.0797 -0.1162  0.0791
    6TAL    C2724582   5.906   6.544   1.152 -0.8012 -0.3807 -0.7554
    6TAL    C2824583   5.824   6.578   1.025  0.4911  0.0874 -0.1297
    6TAL    C2924584   5.810   6.484   0.917 -0.3471  0.5491  0.0781
    6TAL    C3024585   5.723   6.369   0.943 -0.4941  0.3283 -0.5130
    7HTM    C3124586   6.065   6.297   1.398  0.1542 -0.3166  0.1486
    7HTM    C3224587   6.154   6.202   1.357  0.2911 -0.2971  0.4006
    7HTM    C3324588   6.291   6.244   1.363  0.2272 -0.0653  0.2407
    7HTM    C3424589   6.307   6.372   1.408  0.0416  0.0919 -0.1333
    7HTM     S424590   6.149   6.449   1.447 -0.0678 -0.0416 -0.3138
    8TAL    C3524591   6.412   6.157   1.325 -0.0117 -0.3361 -0.6096
    8TAL    C3624592   6.433   6.012   1.379 -0.6196 -0.2222 -0.0851
    8TAL    C3724593   6.332   5.905   1.360 -0.1218 -0.2495  0.0336
    8TAL    C3824594   6.353   5.825   1.226  0.8571  0.0122 -0.4916
    8TAL    C3924595   6.241   5.727   1.187 -0.4706  0.3443  0.3289
    8TAL    C4024596   6.238   5.668   1.047  0.6313 -0.6459 -0.5008
    9HTM    C4124597   6.421   6.463   1.422  0.8243 -0.0939  0.1890
    9HTM    C4224598   6.544   6.448   1.365  1.1194  0.2294  0.7325
    9HTM    C4324599   6.634   6.558   1.391  0.6154  0.6106  0.8838
    9HTM    C4424600   6.580   6.656   1.469 -0.0641  0.5779  0.4555
    9HTM     S524601   6.409   6.618   1.514 -0.1203  0.0587 -0.1768
   10TAL    C4524602   6.765   6.559   1.321  0.3998  0.2522 -0.4643
   10TAL    C4624603   6.859   6.453   1.374  0.5607  0.0021  0.5880
   10TAL    C4724604   6.979   6.435   1.289  0.4657 -0.1220 -0.2983
   10TAL    C4824605   7.087   6.340   1.337  0.0069  0.5957  0.1815
   10TAL    C4924606   7.038   6.204   1.387  0.0213  0.1208  0.2754
   10TAL    C5024607   7.141   6.099   1.411 -0.4081 -0.2983  0.1214
   11HTM    C5124608   6.627   6.780   1.517 -0.3054  0.2681 -0.2363
   11HTM    C5224609   6.557   6.897   1.513  0.0777  0.4952 -0.3861
   11HTM    C5324610   6.639   7.015   1.526  0.4385  0.2337 -0.2939
   11HTM    C5424611   6.772   6.987   1.539  0.3304 -0.1927 -0.0737
   11HTM     S624612   6.804   6.810   1.537 -0.2400 -0.2979  0.0352
   12TAL    C5524613   6.577   7.152   1.531 -0.5387  0.4201 -0.1718
   12TAL    C5624614   6.423   7.172   1.526  0.0006 -0.1652  0.3806
   12TAL    C5724615   6.350   7.171   1.384 -0.3213 -0.3696 -0.1774
   12TAL    C5824616   6.202   7.201   1.416  0.0528  0.5149  0.2698
   12TAL    C5924617   6.103   7.177   1.307 -0.0845 -0.5853  0.1488
   12TAL    C6024618   5.968   7.229   1.344  0.0123  0.1540  0.1099
   13HTM    C6124619   6.886   7.077   1.556 -0.4969  0.3805 -0.0063
   13HTM    C6224620   6.998   7.056   1.630 -0.6778  0.0682  0.1794
   13HTM    C6324621   7.098   7.159   1.617 -0.3476 -0.2294  0.3073
   13HTM    C6424622   7.061   7.259   1.532  0.0848 -0.1441  0.2192
   13HTM     S724623   6.897   7.231   1.462  0.1093  0.3227 -0.0342
   14TAL    C6524624   7.225   7.147   1.691  0.3560  0.3620 -0.6677
   14TAL    C6624625   7.341   7.112   1.601  0.1197 -0.1445  0.3444
   14TAL    C6724626   7.484   7.097   1.658 -0.6600  0.5797 -0.6290
   14TAL    C6824627   7.540   7.184   1.768 -0.0625  0.3640  0.2867
   14TAL    C6924628   7.534   7.340   1.731 -0.3252  0.2706  0.6497
   14TAL    C7024629   7.563   7.440   1.849  0.3699  0.2479  0.1899
   15HTM    C7124630   7.120   7.390   1.494  0.1939 -0.3912 -0.2199
   15HTM    C7224631   7.205   7.465   1.569  0.4201 -0.6130 -0.2528
   15HTM    C7324632   7.237   7.592   1.510  0.3455 -0.4935 -0.0364
   15HTM    C7424633   7.176   7.614   1.390  0.0623 -0.1806  0.1616
   15HTM     S824634   7.073   7.474   1.342 -0.1336 -0.0113  0.0893
   16TAL    C7524635   7.325   7.691   1.582 -0.3456  0.1053  0.9216
   16TAL    C7624636   7.470   7.686   1.549 -0.5912  0.2609  0.0794
   16TAL    C7724637   7.548   7.776   1.641  0.2529  0.2721 -0.8063
   16TAL    C7824638   7.691   7.785   1.596 -0.1203  0.2520 -0.0332
   16TAL    C7924639   7.788   7.861   1.696  0.1556 -0.7896  0.4886
   16TAL    C8024640   7.856   7.775   1.803  0.5938 -0.1297  0.3187
   17HTM    C8124641   7.167   7.731   1.305 -0.2939  0.1072 -0.3008
   17HTM    C8224642   7.273   7.810   1.271 -0.2198 -0.0510 -0.4373
   17HTM    C8324643   7.238   7.919   1.184 -0.1464 -0.0725 -0.4943
   17HTM    C8424644   7.106   7.924   1.152 -0.1637  0.0693 -0.4014
   17HTM     S924645   7.014   7.789   1.230 -0.2757  0.2418 -0.2332
   18TAL    C8524646   7.345   8.013   1.135 -0.6005  0.2916  0.5217
   18TAL    C8624647   7.410   7.968   1.003  0.1936  0.0647 -0.0158
   18TAL    C8724648   7.511   8.077   0.959  0.0642 -0.3007  0.1930
   18TAL    C8824649   7.573   8.035   0.830 -0.3451 -0.1325 -0.1737
   18TAL    C8924650   7.678   7.926   0.847  0.6367 -0.1762  0.4205
   18TAL    C9024651   7.713   7.847   0.720 -0.3640  0.2851 -0.7204
   19HTM    C9124652   7.034   8.013   1.066 -0.0981 -0.0675  0.3828
   19HTM    C9224653   7.058   8.143   1.034 -0.1442 -0.0520  0.4072
   19HTM    C9324654   6.956   8.203   0.952  0.0746 -0.2193  0.0126
   19HTM    C9424655   6.854   8.117   0.921  0.2879 -0.3619 -0.3128
   19HTM    S1024656   6.879   7.955   0.995  0.2279 -0.2949 -0.1447
   20TAL    C9524657   6.965   8.344   0.903  0.0617  0.4520 -0.6703
   20TAL    C9624658   7.049   8.378   0.777 -0.7291 -0.1417 -0.0269
   20TAL    C9724659   7.199   8.346   0.768 -0.1391 -0.0624 -0.5406
   20TAL    C9824660   7.275   8.411   0.647 -0.0358  0.7578 -0.0017
   20TAL    C9924661   7.423   8.396   0.634 -0.3915  0.4358  0.0868
   20TAL   C10024662   7.488   8.465   0.520 -0.0170 -0.7946 -0.2257
   21HTM   C10124663   6.734   8.131   0.838  0.1348  0.2473 -0.2493
   21HTM   C10224664   6.728   8.121   0.702 -0.1118  0.6485 -0.2717
   21HTM   C10324665   6.594   8.131   0.648 -0.2115  0.7882  0.0007
   21HTM   C10424666   6.498   8.149   0.743 -0.0405  0.4942  0.2306
   21HTM    S1124667   6.570   8.155   0.909  0.2612  0.0137  0.1203
   22TAL   C10524668   6.574   8.108   0.505  0.0020  0.1492  0.1928
   22TAL   C10624669   6.585   8.228   0.412  0.5237  0.5223 -0.1306
   22TAL   C10724670   6.469   8.323   0.398  0.5835 -0.8312  0.7068
   22TAL   C10824671   6.513   8.455   0.322  0.5150  0.2616 -1.0017
   22TAL   C10924672   6.413   8.566   0.331 -0.4881 -0.0475  1.0070
   22TAL   C11024673   6.412   8.641   0.456 -0.1508 -0.2281 -0.1697
   23HTM   C11124674   6.366   8.196   0.723  0.6749  0.0068 -0.6529
   23HTM   C11224675   6.257   8.123   0.687  0.7665  0.0339 -0.9884
   23HTM   C11324676   6.136   8.199   0.680  0.6611 -0.0920 -0.5879
   23HTM   C11424677   6.152   8.331   0.710  0.4890 -0.2150  0.0531
   23HTM    S1224678   6.323   8.369   0.751  0.4463 -0.1821  0.2017
   24TAL   C11524679   6.007   8.140   0.637 -0.8227  0.5886  0.0571
   24TAL   C11624680   5.972   8.006   0.713 -0.2605 -0.2054  0.2588
   24TAL   C11724681   5.836   7.951   0.670  0.3935 -0.6089  0.1193
   24TAL   C11824682   5.805   7.817   0.733 -0.4476 -0.2336  0.2581
   24TAL   C11924683   5.667   7.762   0.698  0.0469 -0.3891  0.2677
   24TAL   C12024684   5.551   7.835   0.757 -0.4828 -0.1479  0.0100
   25HTM   C12124685   6.060   8.438   0.727  0.2993 -0.1246 -0.1573
   25HTM   C12224686   6.091   8.555   0.791  0.2451 -0.1707 -0.0473
   25HTM   C12324687   5.980   8.647   0.800  0.2339 -0.1822 -0.0652
   25HTM   C12424688   5.865   8.600   0.744  0.2791 -0.1451 -0.1890
   25HTM    S1324689   5.888   8.435   0.674  0.3401 -0.0920 -0.2932
   26TAL   C12524690   6.001   8.788   0.852  0.2542  0.2845 -0.0556
   26TAL   C12624691   6.138   8.863   0.853 -0.3158  0.3866 -0.5529
   26TAL   C12724692   6.206   8.893   0.718  0.6765  0.5148 -0.2941
   26TAL   C12824693   6.346   8.944   0.722  0.1524 -0.4388 -0.8905
   26TAL   C12924694   6.386   9.067   0.810  0.6688 -0.2987  0.2655
   26TAL   C13024695   6.532   9.103   0.823 -0.3356 -0.2416 -0.0077
   27HTM   C13124696   5.732   8.665   0.723  0.2547 -0.0112  0.2125
   27HTM   C13224697   5.644   8.666   0.619  0.1712 -0.1731  0.2817
   27HTM   C13324698   5.525   8.744   0.643  0.1941 -0.1292  0.2514
   27HTM   C13424699   5.523   8.803   0.766  0.2949  0.0663  0.1592
   27HTM    S1424700   5.671   8.765   0.861  0.3691  0.2111  0.1030
   28TAL   C13524701   5.416   8.737   0.539  0.1137 -0.5236  0.0527
   28TAL   C13624702   5.275   8.687   0.563 -0.0587  0.0861  0.0690
   28TAL   C13724703   5.250   8.571   0.650 -0.0662 -0.1443 -0.4392
   28TAL   C13824704   5.118   8.506   0.669 -0.0709  0.6493 -0.2984
   28TAL   C13924705   4.991   8.594   0.681 -0.1609  0.1659  0.4088
   28TAL   C14024706   4.867   8.511   0.649  0.0614 -0.3653 -0.6128
   29HTM   C14124707   5.416   8.884   0.823 -0.1172 -0.1114  0.1208
   29HTM   C14224708   5.291   8.850   0.867  0.0560 -0.4606  0.3514
   29HTM   C14324709   5.221   8.959   0.931 -0.1402 -0.6466  0.4533
   29HTM   C14424710   5.293   9.075   0.936 -0.4636 -0.4398  0.3004
   29HTM    S1524711   5.455   9.056   0.859 -0.5456  0.0097  0.0136
   30TAL   C14524712   5.083   8.945   0.998  0.0306 -0.4058 -0.1560
   30TAL   C14624713   5.003   8.811   1.018  0.8078 -0.5264 -0.2017
   30TAL   C14724714   5.081   8.703   1.089  1.0427 -0.1921 -0.2173
   30TAL   C14824715   5.017   8.564   1.069  0.3278  0.4041 -0.7370
   30TAL   C14924716   5.103   8.451   1.123 -0.2500 -0.0695  0.0897
   30TAL   C15024717   5.239   8.424   1.055  0.7348 -0.3130  0.7100
   31HTM   C15124718   5.258   9.210   0.982  0.0353  0.3942 -0.3342
   31HTM   C15224719   5.344   9.311   1.015 -0.1178  0.3849  0.0996
   31HTM   C15324720   5.278   9.431   1.057 -0.3047  0.1699  0.4297
   31HTM   C15424721   5.142   9.423   1.056 -0.2943  0.0153  0.2479
   31HTM    S1624722   5.086   9.261   1.002 -0.0457  0.1301 -0.3594
   32TAL   C15524723   5.376   9.545   1.094  0.7602  0.8602  0.5992
   32TAL   C15624724   5.331   9.681   1.134 -0.5999  0.2162  0.4366
   32TAL   C15724725   5.440   9.788   1.137  0.1674  0.6251 -0.2686
   32TAL   C15824726   5.538   9.789   1.255 -0.1353 -0.5668 -0.0394
   32TAL   C15924727   5.633   9.905   1.239 -0.5227 -0.0418 -0.4671
   32TAL   C16024728   5.648   9.972   1.373 -0.2904  0.0925 -0.3913
   33HTM   C16124729   5.032   9.513   1.080  0.2957 -0.0553  0.0765
   33HTM   C16224730   4.943   9.560   0.987  0.3660 -0.2587 -0.0937
   33HTM   C16324731   4.826   9.620   1.045  0.1769 -0.4122 -0.3188
   33HTM   C16424732   4.824   9.619   1.181 -0.0370 -0.3259 -0.3202
   33HTM    S1724733   4.972   9.541   1.248 -0.0164 -0.0419 -0.0351
   34TAL   C16524734   4.724   9.683   0.955  0.8509 -0.1849 -0.2893
   34TAL   C16624735   4.605   9.589   0.935 -0.8470 -0.6660  0.5668
   34TAL   C16724736   4.480   9.658   0.888 -0.6069  0.0829 -0.1652
   34TAL   C16824737   4.358   9.567   0.881 -0.3784 -0.0602 -0.0443
   34TAL   C16924738   4.305   9.503   1.011  0.6100 -0.4880  0.0773
   34TAL   C17024739   4.177   9.420   0.992 -0.3514  0.2997  0.3917
   35HTM   C17124740   4.712   9.628   1.266  0.5112 -0.6631 -0.2313
   35HTM   C17224741   4.604   9.712   1.263  0.8495 -0.2380 -0.6350
   35HTM   C17324742   4.495   9.669   1.347  0.6361  0.5608 -0.4985
   35HTM   C17424743   4.519   9.553   1.414  0.1347  0.7447  0.0093
   35HTM    S1824744   4.683   9.488   1.377 -0.1086 -0.0831  0.3571
   36TAL   C17524745   4.361   9.738   1.358 -0.3428  0.0948 -0.7327
   36TAL   C17624746   4.292   9.813   1.245 -0.2748 -0.5078 -0.0712
   36TAL   C17724747   4.162   9.877   1.261 -0.4258 -0.2339 -0.2203
   36TAL   C17824748   4.044   9.785   1.285 -0.3525 -0.3248  0.0097
   36TAL   C17924749   3.926   9.873   1.332  0.1912  0.0204 -0.4678
   36TAL   C18024750   3.795   9.798   1.355 -0.5428 -0.2412  0.4260
   37HTM   C18124751   4.440   9.467   1.498  0.0837  0.0380 -0.3067
   37HTM   C18224752   4.502   9.423   1.611  0.0305  0.2381 -0.1974
   37HTM   C18324753   4.454   9.295   1.657 -0.2439  0.4907  0.2155
   37HTM   C18424754   4.354   9.243   1.580 -0.3993  0.4832  0.4209
   37HTM    S1924755   4.314   9.351   1.442 -0.2105  0.1540  0.1064
   38TAL   C18524756   4.535   9.211   1.763  0.1609  0.0529  0.3878
   38TAL   C18624757   4.684   9.253   1.776  0.3355  0.9252 -0.4729
   38TAL   C18724758   4.775   9.240   1.659 -0.9006 -0.7503 -0.5404
   38TAL   C18824759   4.921   9.284   1.692  0.6055 -0.0269 -0.1018
   38TAL   C18924760   4.947   9.425   1.750 -0.0545 -0.2501 -0.1050
   38TAL   C19024761   4.931   9.542   1.653 -0.3582  0.3372  0.1250
   39HTM   C19124762   4.280   9.116   1.591  0.0309  0.0608 -0.0872
   39HTM   C19224763   4.334   8.991   1.608  0.1354  0.0443 -0.5145
   39HTM   C19324764   4.243   8.884   1.575  0.1132  0.0772 -0.5602
   39HTM   C19424765   4.120   8.927   1.533 -0.0083  0.1191 -0.1677
   39HTM    S2024766   4.110   9.107   1.532 -0.1048  0.1193  0.2936
   40TAL   C19524767   4.292   8.741   1.596  0.3941 -0.4634  0.2101
   40TAL   C19624768   4.311   8.697   1.744  0.1180 -0.4647  1.0055
   40TAL   C19724769   4.361   8.554   1.757 -0.2445 -0.0255  0.0785
   40TAL   C19824770   4.248   8.462   1.715  0.5629  0.3728 -0.5313
   40TAL   C19924771   4.272   8.316   1.759 -0.1476 -0.7786  0.4839
   40TAL   C20024772   4.175   8.224   1.685 -0.1688  0.0339  0.3499
   41HTM   C20124773   4.006   8.848   1.486 -0.0718 -0.0705 -0.1320
   41HTM   C20224774   3.900   8.894   1.414 -0.1884 -0.0143  0.0764
   41HTM   C20324775   3.799   8.794   1.390 -0.1756 -0.0243  0.0652
   41HTM   C20424776   3.829   8.672   1.442 -0.0494 -0.0876 -0.1517
   41HTM    S2124777   3.988   8.674   1.528  0.0642 -0.1398 -0.3602
   42TAL   C20524778   3.681   8.822   1.296  0.0824  0.3984  0.2659
   42TAL   C20624779   3.695   8.920   1.181  0.7813  0.3977  0.0539
   42TAL   C20724780   3.771   8.880   1.053 -0.3693  0.3509 -0.1501
   42TAL   C20824781   3.757   8.981   0.941 -0.1197 -0.2136 -0.4338
   42TAL   C20924782   3.817   8.924   0.814  0.4652 -0.0303  0.5869
   42TAL   C21024783   3.742   8.974   0.687 -0.1820 -0.5364 -0.5061
   43HTM   C21124784   3.747   8.554   1.470 -0.0314 -0.3404  0.4967
   43HTM   C21224785   3.780   8.461   1.564 -0.1985 -0.6928  0.2128
   43HTM   C21324786   3.674   8.369   1.594 -0.3358 -0.6504 -0.1377
   43HTM   C21424787   3.560   8.391   1.522 -0.2734 -0.2654 -0.1211
   43HTM    S2224788   3.578   8.531   1.411 -0.0344  0.0753  0.3422
   44TAL   C21524789   3.700   8.269   1.698 -0.4327  0.4549  0.4443
   44TAL   C21624790   3.757   8.137   1.649 -0.3269 -0.3229 -0.2984
   44TAL   C21724791   3.831   8.058   1.761  0.0878 -0.0428 -0.4261
   44TAL   C21824792   3.885   7.935   1.699  0.5517 -0.3134  0.0077
   44TAL   C21924793   3.962   7.848   1.798 -0.1320 -0.0338  0.8198
   44TAL   C22024794   3.897   7.805   1.926 -0.2332  0.4739 -0.0983
   45HTM   C22124795   3.432   8.323   1.519  0.6510  0.0331  0.2280
   45HTM   C22224796   3.340   8.333   1.419  0.5864  0.2785  0.3115
   45HTM   C22324797   3.235   8.235   1.427  0.3248  0.5689  0.4154
   45HTM   C22424798   3.246   8.151   1.533  0.1902  0.5449  0.4110
   45HTM    S2324799   3.392   8.188   1.632  0.3843  0.1507  0.2744
   46TAL   C22524800   3.137   8.209   1.312 -0.0435 -0.0475 -0.0482
   46TAL   C22624801   3.194   8.156   1.185 -0.1732  0.7890 -0.0960
   46TAL   C22724802   3.265   8.023   1.214 -0.7409  0.6697 -0.2102
   46TAL   C22824803   3.180   7.895   1.238 -0.1617 -0.4187 -0.7970
   46TAL   C22924804   3.251   7.774   1.299 -0.5571  0.7606  0.1533
   46TAL   C23024805   3.159   7.658   1.311  0.3902 -0.0460 -0.4714
   47HTM   C23124806   3.173   8.040   1.586 -0.1177 -0.1884  0.5405
   47HTM   C23224807   3.213   7.913   1.615 -0.3320 -0.3347  0.2013
   47HTM   C23324808   3.104   7.822   1.639 -0.4938 -0.2911 -0.3477
   47HTM   C23424809   2.981   7.880   1.628 -0.4030 -0.1114 -0.4273
   47HTM    S2424810   2.993   8.055   1.587 -0.1037  0.0174  0.1900
   48TAL   C23524811   3.111   7.676   1.660 -0.1446  0.4527  0.0900
   48TAL   C23624812   3.219   7.624   1.757 -0.6138  0.2943  0.2005
   48TAL   C23724813   3.196   7.478   1.792  0.3443  0.1488 -0.4921
   48TAL   C23824814   3.307   7.437   1.891 -0.1845  1.1932 -0.1659
   48TAL   C23924815   3.274   7.301   1.948 -0.3443 -0.2922 -0.2657
   48TAL   C24024816   3.359   7.263   2.066 -0.7405  0.2336  0.1698
    1HTM     C124817   1.894   6.535   7.663  0.0786  0.5063  0.4844
    1HTM     C224818   1.758   6.532   7.652  0.0303  1.1115  0.8538
    1HTM     C324819   1.693   6.448   7.749 -0.0320  0.8829  0.6130
    1HTM     C424820   1.780   6.386   7.834 -0.0313  0.1036  0.0598
    1HTM     S124821   1.951   6.431   7.798  0.0487 -0.4056 -0.2018
    2TAL     C524822   1.542   6.432   7.751  0.4588 -0.1984  0.3051
    2TAL     C624823   1.497   6.297   7.704 -0.2724  0.6337  0.3800
    2TAL     C724824   1.346   6.284   7.679  0.1394 -0.0116 -0.2564
    2TAL     C824825   1.300   6.134   7.692  0.3786  0.4697 -0.6407
    2TAL     C924826   1.336   6.054   7.821  0.1000  0.1404 -0.0452
    2TAL    C1024827   1.302   5.904   7.800  0.0007  0.1913 -0.2918
    3HTM    C1124828   1.765   6.286   7.946  0.2948 -0.3697 -0.3107
    3HTM    C1224829   1.815   6.305   8.071  0.2984 -0.2060 -0.3357
    3HTM    C1324830   1.775   6.203   8.165  0.0770  0.0603 -0.1345
    3HTM    C1424831   1.696   6.106   8.110 -0.0953  0.1003  0.0438
    3HTM     S224832   1.665   6.137   7.935  0.0093 -0.1982 -0.0294
    4TAL    C1524833   1.824   6.220   8.306 -0.5466 -0.1266 -0.1879
    4TAL    C1624834   1.758   6.334   8.396  0.0978  0.0711  0.4160
    4TAL    C1724835   1.754   6.474   8.340  0.1276 -0.3408 -0.3131
    4TAL    C1824836   1.887   6.552   8.329  0.0309  0.3827 -0.0626
    4TAL    C1924837   1.861   6.700   8.286 -0.4312  0.1057 -0.5028
    4TAL    C2024838   1.991   6.784   8.280 -0.1035  0.3954  0.3558
    5HTM    C2124839   1.634   5.992   8.172  0.0902 -0.0241 -0.4158
    5HTM    C2224840   1.591   5.993   8.302 -0.2388  0.3760 -0.5288
    5HTM    C2324841   1.514   5.877   8.338 -0.3591  0.5035 -0.3738
    5HTM    C2424842   1.499   5.787   8.237 -0.1217  0.2010 -0.1444
    5HTM     S324843   1.581   5.842   8.086  0.2752 -0.2722 -0.1043
    6TAL    C2524844   1.479   5.855   8.488 -0.2610  0.0874  0.0707
    6TAL    C2624845   1.421   5.978   8.570 -0.5041  0.1332  0.6309
    6TAL    C2724846   1.300   6.038   8.500 -0.0920 -0.5076  0.6352
    6TAL    C2824847   1.264   6.173   8.547 -0.5832  0.0927  0.4833
    6TAL    C2924848   1.157   6.229   8.459  0.4859 -0.0585 -0.0608
    6TAL    C3024849   1.152   6.379   8.459  0.2774  0.1917  0.2167
    7HTM    C3124850   1.424   5.668   8.231  0.1027  0.0613  0.2358
    7HTM    C3224851   1.455   5.547   8.175  0.5165 -0.1256  0.8497
    7HTM    C3324852   1.351   5.448   8.191  0.6824 -0.2756  0.9980
    7HTM    C3424853   1.242   5.493   8.259  0.3951 -0.2030  0.4974
    7HTM     S424854   1.262   5.665   8.309 -0.1112  0.0625 -0.2064
    8TAL    C3524855   1.385   5.323   8.115 -0.3003  0.3575  0.8361
    8TAL    C3624856   1.289   5.207   8.095  0.5728  0.6485 -0.3029
    8TAL    C3724857   1.184   5.223   7.988  0.4336  0.8083  0.3788
    8TAL    C3824858   1.035   5.221   8.024  0.1765 -0.1918  0.0561
    8TAL    C3924859   0.977   5.094   8.077  0.4333 -0.1250  0.6441
    8TAL    C4024860   0.833   5.117   8.097 -0.0902  0.4701  0.2045
    9HTM    C4124861   1.115   5.437   8.293  0.0260  0.1293 -0.1477
    9HTM    C4224862   1.099   5.319   8.360  0.1407  0.2921  0.1669
    9HTM    C4324863   0.972   5.308   8.427  0.1706  0.3672  0.2356
    9HTM    C4424864   0.892   5.417   8.411  0.0787  0.2622 -0.0259
    9HTM     S524865   0.970   5.543   8.309 -0.0537  0.0585 -0.3830
   10TAL    C4524866   0.923   5.174   8.489 -0.1798 -0.1526 -0.0390
   10TAL    C4624867   0.996   5.112   8.603 -0.8349 -0.3222 -0.1009
   10TAL    C4724868   1.146   5.096   8.589 -0.5379  0.4239  0.2455
   10TAL    C4824869   1.211   5.019   8.702  0.6826  0.2293  0.7172
   10TAL    C4924870   1.248   5.089   8.839  0.3381  0.4544  0.6485
   10TAL    C5024871   1.274   5.238   8.832 -0.3615 -0.4289  0.3719
   11HTM    C5124872   0.764   5.460   8.465  0.0832 -0.3397 -0.1973
   11HTM    C5224873   0.686   5.562   8.421 -0.1203 -0.6318 -0.5198
   11HTM    C5324874   0.569   5.584   8.501 -0.1674 -0.6173 -0.5932
   11HTM    C5424875   0.557   5.498   8.606 -0.0001 -0.3138 -0.3262
   11HTM     S624876   0.695   5.382   8.612  0.2320 -0.0213  0.0415
   12TAL    C5524877   0.460   5.686   8.462  0.1402  0.0158 -0.2234
   12TAL    C5624878   0.488   5.836   8.493  0.3944  0.2817 -0.0870
   12TAL    C5724879   0.383   5.918   8.419  0.4564  0.1668  0.1928
   12TAL    C5824880   0.399   6.072   8.432  0.1034  0.1598 -0.0427
   12TAL    C5924881   0.300   6.147   8.345  0.1416  0.0624  0.0046
   12TAL    C6024882   0.288   6.300   8.369  0.1432 -0.0160 -0.7494
   13HTM    C6124883   0.461   5.507   8.715 -0.1321  0.2540  0.1486
   13HTM    C6224884   0.494   5.532   8.846 -0.3348 -0.2680  0.2980
   13HTM    C6324885   0.382   5.521   8.936 -0.4540 -0.7398  0.1001
   13HTM    C6424886   0.265   5.489   8.874 -0.3421 -0.5777 -0.2004
   13HTM     S724887   0.286   5.470   8.696 -0.0755  0.1895 -0.2568
   14TAL    C6524888   0.401   5.555   9.089  0.1847  0.6602  0.1202
   14TAL    C6624889   0.532   5.509   9.151  0.6456 -0.3725 -0.2443
   14TAL    C6724890   0.545   5.560   9.295  0.0383  0.1250 -0.0464
   14TAL    C6824891   0.680   5.542   9.358 -0.6676 -0.4273 -0.8755
   14TAL    C6924892   0.705   5.611   9.496  0.0684  0.3916  0.8273
   14TAL    C7024893   0.848   5.627   9.533  0.2303 -0.1840 -0.2529
   15HTM    C7124894   0.134   5.435   8.917 -0.1913  0.0396 -0.2922
   15HTM    C7224895   0.026   5.499   8.970 -0.1909  0.1185 -0.3867
   15HTM    C7324896  -0.087   5.414   8.994 -0.2184  0.1690 -0.3328
   15HTM    C7424897  -0.066   5.284   8.959 -0.2388  0.1289 -0.1973
   15HTM     S824898   0.100   5.259   8.892 -0.2261  0.0228 -0.1268
   16TAL    C7524899  -0.212   5.459   9.062 -0.9139 -0.5378 -0.3645
   16TAL    C7624900  -0.237   5.610   9.073  0.5917 -0.2931 -0.1480
   16TAL    C7724901  -0.379   5.669   9.092 -0.2074 -0.1311 -0.1293
   16TAL    C7824902  -0.451   5.620   9.213  0.2549 -0.0374 -0.6649
   16TAL    C7924903  -0.595   5.688   9.216  0.0759  0.1496  0.3644
   16TAL    C8024904  -0.696   5.637   9.317  0.4807 -0.6799  0.3638
   17HTM    C8124905  -0.155   5.169   8.947  0.1061  0.0344 -0.3306
   17HTM    C8224906  -0.125   5.070   8.857  0.1884 -0.3438  0.1054
   17HTM    C8324907  -0.229   4.972   8.843  0.2308 -0.4444  0.4730
   17HTM    C8424908  -0.338   4.995   8.921  0.1802 -0.1429  0.3166
   17HTM     S924909  -0.317   5.144   9.021  0.0753  0.2947 -0.3115
   18TAL    C8524910  -0.223   4.861   8.734  0.5239  0.1481  0.5671
   18TAL    C8624911  -0.086   4.801   8.684 -0.1807 -0.0290  0.6383
   18TAL    C8724912   0.021   4.766   8.793  0.0330  0.4713 -0.1394
   18TAL    C8824913   0.149   4.701   8.739  0.3643 -0.0945  0.2548
   18TAL    C8924914   0.138   4.558   8.681  0.2107  0.1920 -0.3532
   18TAL    C9024915   0.268   4.502   8.625  0.3456  0.0702 -0.4239
   19HTM    C9124916  -0.460   4.915   8.940  0.1989 -0.4986 -0.1601
   19HTM    C9224917  -0.505   4.803   8.875  0.1535 -0.6192  0.0763
   19HTM    C9324918  -0.627   4.750   8.929 -0.0138 -0.2947  0.0196
   19HTM    C9424919  -0.676   4.820   9.035 -0.0960  0.0730 -0.2608
   19HTM    S1024920  -0.570   4.961   9.075  0.0337  0.0381 -0.4769
   20TAL    C9524921  -0.694   4.625   8.876  0.4606  0.2843 -0.0893
   20TAL    C9624922  -0.621   4.497   8.907  0.5815  0.2026 -0.5779
   20TAL    C9724923  -0.674   4.382   8.834 -0.2094  0.1305  0.4904
   20TAL    C9824924  -0.620   4.245   8.884 -0.0392  0.1664  0.5284
   20TAL    C9924925  -0.614   4.141   8.774  0.0624 -0.2188 -0.7117
   20TAL   C10024926  -0.567   4.009   8.833  0.0144 -0.6011  0.8552
   21HTM   C10124927  -0.807   4.796   9.098  0.1719 -0.0483 -0.0513
   21HTM   C10224928  -0.916   4.878   9.087  0.2365  0.0613  0.1327
   21HTM   C10324929  -1.036   4.820   9.143  0.2651  0.1707  0.3106
   21HTM   C10424930  -1.019   4.696   9.195  0.2229  0.1442  0.2624
   21HTM    S1124931  -0.848   4.640   9.178  0.1425 -0.0215 -0.0137
   22TAL   C10524932  -1.169   4.896   9.130 -0.3510 -0.4489 -0.0546
   22TAL   C10624933  -1.186   5.047   9.145  0.2590 -0.2626  0.5251
   22TAL   C10724934  -1.335   5.080   9.154  0.4154 -0.1402 -0.0693
   22TAL   C10824935  -1.365   5.226   9.146 -0.0764  0.1084 -0.2814
   22TAL   C10924936  -1.488   5.266   9.235 -0.0611  0.7724 -0.4967
   22TAL   C11024937  -1.511   5.414   9.239 -0.6803  0.2717 -0.0754
   23HTM   C11124938  -1.108   4.601   9.261  0.0058  0.0382  0.3346
   23HTM   C11224939  -1.230   4.619   9.320  0.0243 -0.1945  0.4432
   23HTM   C11324940  -1.289   4.497   9.369  0.2074 -0.3362  0.3116
   23HTM   C11424941  -1.212   4.386   9.347  0.3283 -0.2121  0.1026
   23HTM    S1224942  -1.058   4.428   9.262  0.2196  0.0964  0.0554
   24TAL   C11524943  -1.428   4.495   9.439  0.9653  0.0704  0.9086
   24TAL   C11624944  -1.529   4.622   9.427 -0.8892 -0.0391 -0.2616
   24TAL   C11724945  -1.655   4.585   9.507 -0.0581  0.5540  0.1640
   24TAL   C11824946  -1.743   4.706   9.537 -0.0592  0.8598  0.8533
   24TAL   C11924947  -1.864   4.672   9.627 -0.2249 -0.1331 -0.0168
   24TAL   C12024948  -1.945   4.795   9.655 -0.3544  0.1153 -0.3498
   25HTM   C12124949  -1.225   4.246   9.384  0.4001 -0.1508  0.2600
   25HTM   C12224950  -1.129   4.151   9.398  0.2139 -0.3018  0.5262
   25HTM   C12324951  -1.180   4.020   9.430 -0.0694 -0.1962  0.5073
   25HTM   C12424952  -1.316   4.015   9.440 -0.0991  0.0354  0.2266
   25HTM    S1324953  -1.390   4.177   9.410  0.2305  0.1387 -0.0376
   26TAL   C12524954  -1.092   3.892   9.446 -0.6261 -0.1873  0.6374
   26TAL   C12624955  -1.061   3.857   9.589 -0.2758  1.1438 -0.1957
   26TAL   C12724956  -0.992   3.961   9.677 -0.3170  0.0939  0.0985
   26TAL   C12824957  -0.869   4.030   9.608 -0.4200  0.3160 -0.2723
   26TAL   C12924958  -0.790   4.135   9.692 -0.0685  0.5647  0.5540
   26TAL   C13024959  -0.710   4.077   9.809  0.7624 -0.0945 -0.0364
   27HTM   C13124960  -1.406   3.897   9.454 -0.3130  0.7502 -0.4429
   27HTM   C13224961  -1.402   3.780   9.383 -0.0842  0.7200 -0.3825
   27HTM   C13324962  -1.508   3.688   9.418  0.3042  0.3834 -0.0833
   27HTM   C13424963  -1.592   3.735   9.515  0.3718  0.1566  0.0844
   27HTM    S1424964  -1.544   3.899   9.571 -0.0535  0.3525 -0.1241
   28TAL   C13524965  -1.514   3.548   9.354  0.2894 -0.0298 -0.5508
   28TAL   C13624966  -1.504   3.521   9.200  0.2153 -0.4700 -0.8685
   28TAL   C13724967  -1.375   3.565   9.123  0.3656 -0.2013 -0.2298
   28TAL   C13824968  -1.241   3.549   9.201  0.6078 -0.0223 -0.3483
   28TAL   C13924969  -1.115   3.585   9.124  0.9413 -0.1199 -0.1377
   28TAL   C14024970  -0.998   3.614   9.219 -0.2605  0.3156  0.0224
   29HTM   C14124971  -1.719   3.694   9.579  0.1410 -0.3403  0.1885
   29HTM   C14224972  -1.783   3.760   9.680  0.7093 -0.5813  0.7139
   29HTM   C14324973  -1.886   3.683   9.744  0.7732 -0.5817  0.8152
   29HTM   C14424974  -1.900   3.557   9.693  0.2536 -0.3414  0.3669
   29HTM    S1524975  -1.785   3.527   9.558 -0.3619 -0.0936 -0.2225
   30TAL   C14524976  -1.981   3.740   9.852 -0.4849  0.5819 -0.2353
   30TAL   C14624977  -2.052   3.864   9.806 -0.8032 -0.8180  0.0339
   30TAL   C14724978  -2.129   3.931   9.917  0.1131 -0.3785  0.3025
   30TAL   C14824979  -2.229   3.864  10.017 -0.1020 -0.8182 -0.3135
   30TAL   C14924980  -2.343   3.793   9.951  0.0464 -0.2074  0.3587
   30TAL   C15024981  -2.320   3.651   9.912  0.0232  0.2796 -0.0398
   31HTM   C15124982  -2.013   3.470   9.723  0.0649 -0.0165  0.1921
   31HTM   C15224983  -2.032   3.390   9.832 -0.1273 -0.3858 -0.1090
   31HTM   C15324984  -2.151   3.310   9.825 -0.1578 -0.3058 -0.5549
   31HTM   C15424985  -2.223   3.329   9.711  0.0114  0.1244 -0.5938
   31HTM    S1624986  -2.146   3.450   9.602  0.2237  0.4647 -0.0662
   32TAL   C15524987  -2.182   3.211   9.933 -0.1806  0.2211  0.2096
   32TAL   C15624988  -2.302   3.257  10.016 -0.3266 -0.1504 -0.2531
   32TAL   C15724989  -2.350   3.184  10.141  0.2865 -0.6655 -0.0957
   32TAL   C15824990  -2.365   3.029  10.147 -0.6695 -0.1299  0.3919
   32TAL   C15924991  -2.439   2.965  10.030 -0.1125  0.8218 -0.0735
   32TAL   C16024992  -2.430   2.817  10.039  0.6233  0.4241 -0.2615
   33HTM   C16124993  -2.336   3.271   9.649 -0.3025  0.4088  0.2177
   33HTM   C16224994  -2.431   3.184   9.694 -0.3426  0.3906  0.1012
   33HTM   C16324995  -2.533   3.153   9.597 -0.0610  0.1510 -0.1216
   33HTM   C16424996  -2.516   3.217   9.478  0.1936 -0.0136 -0.1750
   33HTM    S1724997  -2.369   3.321   9.479  0.0966  0.1220  0.0538
   34TAL   C16524998  -2.646   3.049   9.628  0.1548 -0.8946  0.2959
   34TAL   C16624999  -2.595   2.907   9.665  0.3540  0.1226 -0.0532
   34TAL   C16725000  -2.548   2.823   9.547 -0.2692 -0.1220  0.2104
   34TAL   C16825001  -2.671   2.785   9.458  0.1366  0.1083 -0.1854
   34TAL   C16925002  -2.621   2.698   9.336  0.5464 -0.5877  0.8772
   34TAL   C17025003  -2.727   2.658   9.241 -0.5930 -0.4852  0.3913
   35HTM   C17125004  -2.585   3.231   9.354  0.0734 -0.1594 -0.2691
   35HTM   C17225005  -2.573   3.334   9.265  0.2687 -0.1986 -0.2879
   35HTM   C17325006  -2.662   3.324   9.152  0.2370 -0.0408 -0.2766
   35HTM   C17425007  -2.742   3.214   9.155  0.0176  0.1192 -0.2493
   35HTM    S1825008  -2.711   3.113   9.301 -0.1678  0.0820 -0.2355
   36TAL   C17525009  -2.665   3.437   9.044 -0.9370 -0.6620  0.5314
   36TAL   C17625010  -2.556   3.547   9.025  0.5413  0.0851 -0.2826
   36TAL   C17725011  -2.408   3.508   9.020 -0.1124  0.5117  0.2152
   36TAL   C17825012  -2.377   3.397   8.909  0.3282 -0.7368 -0.2279
   36TAL   C17925013  -2.238   3.339   8.944  0.4255 -0.2729 -0.0463
   36TAL   C18025014  -2.200   3.225   8.847  0.5619 -0.4973 -0.0544
   37HTM   C18125015  -2.846   3.174   9.067  0.1605  0.1488 -0.1159
   37HTM   C18225016  -2.866   3.049   9.016  0.2081  0.2311 -0.3382
   37HTM   C18325017  -2.993   3.032   8.951  0.1965  0.2854 -0.3290
   37HTM   C18425018  -3.071   3.145   8.952  0.1404  0.2443 -0.1001
   37HTM    S1925019  -2.987   3.281   9.037  0.0971  0.1332  0.1237
   38TAL   C18525020  -3.029   2.899   8.884 -0.5210  0.4106  0.0110
   38TAL   C18625021  -2.909   2.794   8.869 -0.1022 -0.1360  0.0991
   38TAL   C18725022  -2.938   2.668   8.794 -0.8237 -0.0573  0.0333
   38TAL   C18825023  -2.818   2.574   8.784  0.5666  0.3637 -0.5207
   38TAL   C18925024  -2.848   2.477   8.673  0.0219  0.2354 -0.1411
   38TAL   C19025025  -2.737   2.370   8.664  0.5806  0.1162 -0.1046
   39HTM   C19125026  -3.211   3.172   8.917  0.2366 -0.5297  0.3898
   39HTM   C19225027  -3.271   3.293   8.901  0.5598 -0.3128  0.8011
   39HTM   C19325028  -3.410   3.284   8.862  0.5157  0.1891  0.8378
   39HTM   C19425029  -3.454   3.156   8.848  0.1583  0.3552  0.4541
   39HTM    S2025030  -3.325   3.036   8.883 -0.1520 -0.1135  0.0137
   40TAL   C19525031  -3.495   3.404   8.821  0.4589  0.1886  0.0415
   40TAL   C19625032  -3.488   3.518   8.917 -0.2414 -0.3188 -0.1268
   40TAL   C19725033  -3.570   3.642   8.888  0.8636  0.7144 -0.0757
   40TAL   C19825034  -3.721   3.653   8.933 -0.5254 -0.0240  0.4154
   40TAL   C19925035  -3.825   3.570   8.874 -0.0825 -0.4832  0.0429
   40TAL   C20025036  -3.953   3.563   8.955  0.1370  0.0356  0.4767
   41HTM   C20125037  -3.589   3.104   8.809 -0.2480 -0.2277 -0.7101
   41HTM   C20225038  -3.616   2.981   8.756 -0.3700 -0.2606 -0.5732
   41HTM   C20325039  -3.756   2.954   8.739 -0.4225 -0.3772  0.0162
   41HTM   C20425040  -3.837   3.057   8.779 -0.3409 -0.4335  0.3299
   41HTM    S2125041  -3.741   3.196   8.842 -0.1896 -0.3425 -0.0995
   42TAL   C20525042  -3.809   2.824   8.683  0.0272  0.3698  0.8468
   42TAL   C20625043  -3.713   2.706   8.636  0.7503  0.7556  0.1334
   42TAL   C20725044  -3.638   2.626   8.750 -0.2651 -0.0118  0.0695
   42TAL   C20825045  -3.539   2.518   8.713 -0.0536  0.0423 -0.7359
   42TAL   C20925046  -3.418   2.570   8.631  0.1219 -0.1911 -0.3550
   42TAL   C21025047  -3.308   2.466   8.611 -0.0408 -0.3086  0.0081
   43HTM   C21125048  -3.974   3.083   8.780  0.0146 -0.1214 -0.6416
   43HTM   C21225049  -4.078   2.996   8.792 -0.1216 -0.0232 -1.0853
   43HTM   C21325050  -4.207   3.059   8.796 -0.0401  0.1402 -1.0266
   43HTM   C21425051  -4.202   3.195   8.787  0.1585  0.1664 -0.5385
   43HTM    S2225052  -4.032   3.254   8.773  0.2588 -0.0148 -0.1097
   44TAL   C21525053  -4.329   2.973   8.823  0.1479  0.7001  0.0761
   44TAL   C21625054  -4.378   2.891   8.712 -0.1342  0.6553  0.3167
   44TAL   C21725055  -4.493   2.798   8.750  0.1577 -0.0430  0.4437
   44TAL   C21825056  -4.621   2.861   8.808 -0.4824 -0.3145  0.0399
   44TAL   C21925057  -4.693   2.964   8.729 -0.0041  0.0165  0.3548
   44TAL   C22025058  -4.838   2.996   8.764 -0.3484  0.0435  0.0821
   45HTM   C22125059  -4.295   3.308   8.782  0.1997 -0.0628 -0.0438
   45HTM   C22225060  -4.271   3.442   8.789  0.2649 -0.0786  0.0443
   45HTM   C22325061  -4.390   3.523   8.792  0.3042 -0.0156 -0.0639
   45HTM   C22425062  -4.506   3.450   8.788  0.2688  0.0481 -0.2345
   45HTM    S2325063  -4.472   3.273   8.780  0.1831  0.0336 -0.2711
   46TAL   C22525064  -4.387   3.673   8.803 -0.7170  0.4792 -0.7103
   46TAL   C22625065  -4.278   3.730   8.885  0.1222 -0.4870  0.0254
   46TAL   C22725066  -4.255   3.886   8.897  0.6360  0.0964 -0.6721
   46TAL   C22825067  -4.124   3.928   8.962 -0.2418 -0.0660  0.0466
   46TAL   C22925068  -4.108   4.076   8.978 -0.2926  0.0333  0.4386
   46TAL   C23025069  -3.993   4.121   9.062  0.0333  0.2264  0.2094
   47HTM   C23125070  -4.648   3.485   8.794 -0.0738  0.2405 -0.4980
   47HTM   C23225071  -4.718   3.587   8.851  0.0172  0.2257 -0.3567
   47HTM   C23325072  -4.861   3.573   8.839 -0.0081  0.1197  0.0625
   47HTM   C23425073  -4.900   3.460   8.773 -0.1188  0.0538  0.2419
   47HTM    S2425074  -4.757   3.362   8.721 -0.2000  0.1208 -0.1088
   48TAL   C23525075  -4.942   3.671   8.910  0.8716  0.0124 -0.0295
   48TAL   C23625076  -5.088   3.695   8.877  0.1745  0.1661 -0.2563
   48TAL   C23725077  -5.185   3.585   8.926 -0.3729 -0.7876  0.0652
   48TAL   C23825078  -5.331   3.644   8.932 -0.1973  0.0534  0.4459
   48TAL   C23925079  -5.446   3.543   8.937  0.6037  0.0851  0.0108
   48TAL   C24025080  -5.585   3.608   8.910 -0.2384  0.2499 -0.2121
    1HTM     C125081   2.483   1.731   5.976  0.0757 -0.0665 -0.1040
    1HTM     C225082   2.521   1.689   5.853  0.4359  0.4151 -0.1616
    1HTM     C325083   2.439   1.740   5.746  0.6745  0.7364 -0.1915
    1HTM     C425084   2.339   1.822   5.789  0.4959  0.4999 -0.1559
    1HTM     S125085   2.340   1.840   5.968  0.0092 -0.1521 -0.0824
    2TAL     C525086   2.489   1.699   5.605 -0.0973  0.2590  0.2774
    2TAL     C625087   2.412   1.590   5.536 -0.9490 -0.2984 -0.0944
    2TAL     C725088   2.454   1.579   5.389 -0.0487  0.1784 -0.0430
    2TAL     C825089   2.369   1.471   5.313 -0.0207 -0.8089  0.1254
    2TAL     C925090   2.410   1.470   5.168 -0.1998  0.6414  0.3200
    2TAL    C1025091   2.342   1.351   5.089 -0.3291 -0.4732 -0.1726
    3HTM    C1125092   2.225   1.882   5.713 -0.2272 -0.0040  0.2362
    3HTM    C1225093   2.101   1.915   5.759 -0.1075  0.6420  0.1032
    3HTM    C1325094   2.005   1.941   5.655  0.0659  0.8749  0.0005
    3HTM    C1425095   2.056   1.927   5.529  0.0785  0.4066  0.0549
    3HTM     S225096   2.230   1.880   5.533 -0.1293 -0.3710  0.2418
    4TAL    C1525097   1.858   1.970   5.683  0.9945 -0.0323  0.2366
    4TAL    C1625098   1.788   1.947   5.819  0.2559  0.8419 -0.0132
    4TAL    C1725099   1.772   1.796   5.873 -0.5387 -0.6884  0.0711
    4TAL    C1825100   1.718   1.701   5.772  0.0217  0.3125  0.3397
    4TAL    C1925101   1.728   1.563   5.826  0.1048 -0.4372  0.4612
    4TAL    C2025102   1.666   1.453   5.738  0.0149  0.3836 -0.5855
    5HTM    C2125103   2.000   1.945   5.396  0.3475 -0.1236  0.3349
    5HTM    C2225104   1.928   2.051   5.349  0.2249 -0.0020  0.7875
    5HTM    C2325105   1.918   2.055   5.205 -0.2033  0.3251  0.8235
    5HTM    C2425106   1.982   1.951   5.143 -0.4072  0.4529  0.3985
    5HTM     S325107   2.060   1.841   5.262 -0.0715  0.1678 -0.0842
    6TAL    C2525108   1.845   2.173   5.134  0.8130  0.5491 -0.1810
    6TAL    C2625109   1.712   2.129   5.064  0.4394  0.0454 -0.8611
    6TAL    C2725110   1.604   2.084   5.157 -0.2519 -0.1901 -0.1919
    6TAL    C2825111   1.485   2.026   5.085  0.4142 -0.3952  0.7217
    6TAL    C2925112   1.420   1.905   5.150  0.2216  0.0565 -0.4353
    6TAL    C3025113   1.296   1.868   5.082 -0.3055 -0.0600  0.9911
    7HTM    C3125114   2.000   1.911   5.002 -0.2104  0.0430  0.2933
    7HTM    C3225115   2.080   1.809   4.960 -0.2934 -0.0429  0.3445
    7HTM    C3325116   2.088   1.797   4.817 -0.2137 -0.0504  0.3493
    7HTM    C3425117   2.014   1.890   4.749 -0.0700  0.0298  0.3022
    7HTM     S425118   1.928   2.001   4.862 -0.0239  0.1218  0.2472
    8TAL    C3525119   2.170   1.675   4.756  0.2900 -0.3966  0.1970
    8TAL    C3625120   2.115   1.532   4.778  1.0267 -0.2230  0.0706
    8TAL    C3725121   1.972   1.499   4.725  0.1921  0.2634 -0.3541
    8TAL    C3825122   1.951   1.514   4.571 -0.5665  0.3022  0.2534
    8TAL    C3925123   1.812   1.526   4.524 -0.0710 -0.6199  0.0961
    8TAL    C4025124   1.794   1.528   4.377  0.2417  0.1276 -0.6062
    9HTM    C4125125   2.022   1.923   4.611 -0.2445 -0.0822 -0.1000
    9HTM    C4225126   1.961   1.867   4.503 -0.5210  0.2873 -0.1354
    9HTM    C4325127   1.987   1.935   4.379 -0.4101  0.3998 -0.0496
    9HTM    C4425128   2.069   2.043   4.392 -0.0492  0.1161  0.0515
    9HTM     S525129   2.119   2.067   4.564  0.1806 -0.3184  0.0459
   10TAL    C4525130   1.940   1.887   4.245 -0.1092  0.0129 -0.5935
   10TAL    C4625131   1.799   1.928   4.201  0.5230 -0.5904 -0.5068
   10TAL    C4725132   1.776   1.926   4.050  1.2485  0.0174  0.0400
   10TAL    C4825133   1.847   2.027   3.961 -0.0654 -0.1166  0.5902
   10TAL    C4925134   1.969   1.953   3.911 -0.2524  0.1492  0.6951
   10TAL    C5025135   2.073   2.035   3.844 -0.4810  0.0317 -0.3070
   11HTM    C5125136   2.120   2.138   4.299 -0.1385  0.1659 -0.0705
   11HTM    C5225137   2.219   2.116   4.208 -0.2083  0.0743 -0.1247
   11HTM    C5325138   2.273   2.237   4.151 -0.0730  0.0280 -0.0951
   11HTM    C5425139   2.215   2.351   4.199  0.1000  0.0846 -0.0181
   11HTM     S625140   2.087   2.314   4.320  0.1056  0.2013  0.0235
   12TAL    C5525141   2.403   2.235   4.061 -0.3841  0.3403  0.7080
   12TAL    C5625142   2.393   2.153   3.935 -0.2483  0.1367  0.6426
   12TAL    C5725143   2.522   2.140   3.859  0.3397  0.6149  0.4324
   12TAL    C5825144   2.507   2.091   3.719  0.1864 -0.1025 -0.4543
   12TAL    C5925145   2.634   2.112   3.640 -0.2293  0.0066 -0.6016
   12TAL    C6025146   2.745   2.009   3.653  0.3979 -0.7631 -0.0915
   13HTM    C6125147   2.240   2.487   4.171  0.2259 -0.1613 -0.5190
   13HTM    C6225148   2.152   2.581   4.125  0.2422 -0.1963 -0.6206
   13HTM    C6325149   2.204   2.715   4.128  0.0709 -0.1391 -0.2716
   13HTM    C6425150   2.331   2.724   4.178 -0.0760 -0.0605  0.0960
   13HTM     S725151   2.395   2.562   4.224 -0.0088 -0.0526  0.0295
   14TAL    C6525152   2.118   2.832   4.075  0.4524  0.0381  0.5383
   14TAL    C6625153   2.057   2.802   3.933 -0.5383 -0.3148  0.2324
   14TAL    C6725154   1.978   2.901   3.856 -0.5766  0.1429 -0.0918
   14TAL    C6825155   1.960   2.854   3.713  0.0732 -0.0165 -0.4097
   14TAL    C6925156   1.850   2.916   3.630 -0.1910 -0.2595  0.8986
   14TAL    C7025157   1.714   2.929   3.686 -0.1238 -0.3570 -0.6566
   15HTM    C7125158   2.424   2.838   4.204  0.1351 -0.1173  0.2830
   15HTM    C7225159   2.551   2.832   4.253  0.1101  0.0844  0.3729
   15HTM    C7325160   2.610   2.962   4.278  0.0442  0.1874  0.0052
   15HTM    C7425161   2.527   3.066   4.248  0.0190  0.0644 -0.3651
   15HTM     S825162   2.368   3.009   4.186  0.0767 -0.1933 -0.2776
   16TAL    C7525163   2.748   2.986   4.339 -0.1237 -0.4454  0.1305
   16TAL    C7625164   2.760   3.004   4.496  0.3363 -0.2065  0.3859
   16TAL    C7725165   2.888   3.067   4.550  0.2363  0.6031  0.3326
   16TAL    C7825166   2.908   3.216   4.532 -0.1798  0.1323  0.0899
   16TAL    C7925167   3.036   3.270   4.604 -0.6147 -0.1284  0.2017
   16TAL    C8025168   3.165   3.265   4.512 -0.2874  0.6134  0.2347
   17HTM    C8125169   2.556   3.208   4.259 -0.3859  0.4810 -0.3069
   17HTM    C8225170   2.613   3.286   4.163 -0.8736  0.9271 -0.2334
   17HTM    C8325171   2.643   3.420   4.207 -0.7405  0.7535  0.2019
   17HTM    C8425172   2.611   3.443   4.338 -0.1514  0.1750  0.4607
   17HTM     S925173   2.538   3.297   4.415  0.2845 -0.1981  0.1717
   18TAL    C8525174   2.686   3.514   4.096 -0.4640 -0.0224 -0.9566
   18TAL    C8625175   2.820   3.580   4.117  0.2479 -0.0484  0.1896
   18TAL    C8725176   2.878   3.682   4.015  0.2480  0.1259 -0.5196
   18TAL    C8825177   2.806   3.810   3.983 -0.1932 -0.0465  0.8486
   18TAL    C8925178   2.780   3.898   4.108  0.0317 -0.1281  0.1778
   18TAL    C9025179   2.687   4.011   4.064  0.6511  0.1324 -0.0427
   19HTM    C9125180   2.660   3.554   4.410 -0.4619 -0.2611  0.1570
   19HTM    C9225181   2.768   3.558   4.493 -0.0974 -0.3781 -0.3049
   19HTM    C9325182   2.811   3.692   4.526  0.2611 -0.4233 -0.5755
   19HTM    C9425183   2.735   3.789   4.468  0.1700 -0.3408 -0.3201
   19HTM    S1025184   2.603   3.719   4.366 -0.3802 -0.1986  0.2865
   20TAL    C9525185   2.921   3.720   4.626 -0.2338  0.1464  0.7279
   20TAL    C9625186   3.056   3.656   4.598 -0.3863  0.1265  0.2858
   20TAL    C9725187   3.131   3.682   4.726  0.2239 -0.1623  0.4837
   20TAL    C9825188   3.270   3.621   4.714  0.1385  0.1948 -0.0848
   20TAL    C9925189   3.291   3.483   4.775 -0.0902  0.4302 -0.3083
   20TAL   C10025190   3.431   3.427   4.763 -0.3308 -0.5876 -0.5614
   21HTM   C10125191   2.739   3.935   4.460 -0.0596 -0.1202 -0.3163
   21HTM   C10225192   2.847   4.014   4.486  0.0333 -0.3693  0.0651
   21HTM   C10325193   2.817   4.155   4.487  0.2528 -0.3228  0.4714
   21HTM   C10425194   2.686   4.184   4.462  0.3274 -0.0384  0.3999
   21HTM    S1125195   2.589   4.033   4.435  0.1247  0.1948 -0.1911
   22TAL   C10525196   2.923   4.256   4.520  0.3126  0.6366  0.7933
   22TAL   C10625197   3.062   4.214   4.559  0.2792 -0.5265  0.1948
   22TAL   C10725198   3.175   4.315   4.526 -0.3155  0.0973 -0.7887
   22TAL   C10825199   3.307   4.270   4.549  0.1056  0.0295 -0.2228
   22TAL   C10925200   3.403   4.372   4.613  0.1762 -0.8849 -0.0235
   22TAL   C11025201   3.546   4.329   4.624  0.1002  0.1904  0.1193
   23HTM   C11125202   2.608   4.307   4.447  0.2423 -0.2711 -0.0332
   23HTM   C11225203   2.474   4.306   4.420  0.3273 -0.2809 -0.4437
   23HTM   C11325204   2.420   4.436   4.390  0.4419 -0.3073 -0.7703
   23HTM   C11425205   2.513   4.537   4.395  0.4444 -0.3179 -0.6090
   23HTM    S1225206   2.676   4.474   4.438  0.3012 -0.2951 -0.0271
   24TAL   C11525207   2.274   4.447   4.348  0.5533  0.4147 -0.0019
   24TAL   C11625208   2.227   4.372   4.218 -1.3848  0.3428 -0.8395
   24TAL   C11725209   2.328   4.364   4.100  0.1026  0.6255 -0.3388
   24TAL   C11825210   2.278   4.284   3.978 -0.2728 -0.4819  0.4488
   24TAL   C11925211   2.362   4.300   3.853  0.2154  0.5325 -0.0263
   24TAL   C12025212   2.314   4.191   3.745 -0.1336  0.4462  0.1536
   25HTM   C12125213   2.496   4.683   4.383  0.2292 -0.1385 -0.1824
   25HTM   C12225214   2.601   4.770   4.395  0.1926 -0.1018 -0.1268
   25HTM   C12325215   2.564   4.908   4.383  0.1323 -0.1094 -0.0284
   25HTM   C12425216   2.430   4.928   4.362  0.1228 -0.1517 -0.0085
   25HTM    S1325217   2.341   4.771   4.354  0.1899 -0.1854 -0.1139
   26TAL   C12525218   2.678   5.013   4.395 -0.1584 -0.4032 -0.1014
   26TAL   C12625219   2.759   5.014   4.525 -0.2794 -0.2200  0.0209
   26TAL   C12725220   2.841   5.145   4.546  0.5900  0.3007  0.3121
   26TAL   C12825221   2.758   5.275   4.543 -0.5356  0.0641  0.2472
   26TAL   C12925222   2.847   5.403   4.537  0.3075 -0.4384 -0.0443
   26TAL   C13025223   2.763   5.524   4.501 -0.3424 -0.0754  0.2382
   27HTM   C13125224   2.362   5.055   4.333 -0.0056  0.0434  0.2756
   27HTM   C13225225   2.238   5.060   4.276  0.1025 -0.1011  0.0274
   27HTM   C13325226   2.194   5.193   4.245  0.1652 -0.1795 -0.4065
   27HTM   C13425227   2.283   5.290   4.278  0.1052 -0.0951 -0.4892
   27HTM    S1425228   2.432   5.220   4.352 -0.0365  0.0915 -0.0217
   28TAL   C13525229   2.060   5.215   4.166 -0.6803 -0.0135  0.7862
   28TAL   C13625230   1.945   5.119   4.182  0.7538  0.1377 -0.4401
   28TAL   C13725231   1.952   4.973   4.171  0.2122 -0.0174  0.5404
   28TAL   C13825232   1.844   4.903   4.246 -0.4677 -0.2768  0.1670
   28TAL   C13925233   1.850   4.745   4.240 -0.6532 -0.6887  0.4022
   28TAL   C14025234   1.991   4.689   4.288 -0.6323  0.2740 -0.7590
   29HTM   C14125235   2.280   5.435   4.263  0.1942  0.2629 -0.1159
   29HTM   C14225236   2.392   5.512   4.276  0.1547  0.4077 -0.5991
   29HTM   C14325237   2.366   5.653   4.275  0.0112  0.3786 -0.8805
   29HTM   C14425238   2.234   5.684   4.260 -0.0587  0.2115 -0.6120
   29HTM    S1525239   2.132   5.536   4.247  0.0521  0.0767  0.0226
   30TAL   C14525240   2.471   5.756   4.296 -0.2544 -0.3336 -0.3002
   30TAL   C14625241   2.581   5.752   4.194 -0.4907 -0.4712  0.1183
   30TAL   C14725242   2.570   5.828   4.062  0.2545 -0.6773 -0.7128
   30TAL   C14825243   2.550   5.979   4.073  0.4188  0.2654  0.1085
   30TAL   C14925244   2.546   6.070   3.953  0.8546 -0.9035 -0.2882
   30TAL   C15025245   2.665   6.070   3.855  0.9220 -0.0976  0.2764
   31HTM   C15125246   2.159   5.810   4.278 -0.0473 -0.2683  0.6499
   31HTM   C15225247   2.204   5.936   4.250  0.5585 -0.3672  1.1744
   31HTM   C15325248   2.109   6.040   4.281  0.7235 -0.1001  0.7908
   31HTM   C15425249   1.992   5.993   4.332  0.2435  0.2032 -0.0260
   31HTM    S1625250   1.992   5.813   4.345 -0.4598  0.1742 -0.3772
   32TAL   C15525251   2.139   6.187   4.247  0.1767  0.2228  0.4111
   32TAL   C15625252   2.272   6.229   4.185 -0.4825 -0.3880  0.1285
   32TAL   C15725253   2.284   6.364   4.112 -0.4260 -0.3794  0.3189
   32TAL   C15825254   2.228   6.475   4.200  0.3576 -0.0396 -0.6439
   32TAL   C15925255   2.269   6.611   4.149  0.1014 -0.1869  0.1653
   32TAL   C16025256   2.201   6.717   4.244  0.4223  0.5295 -0.9215
   33HTM   C16125257   1.866   6.055   4.374 -0.0418 -0.1738 -0.1132
   33HTM   C16225258   1.811   6.178   4.350  0.2521 -0.0319 -0.0641
   33HTM   C16325259   1.683   6.197   4.413  0.3062  0.2568 -0.0422
   33HTM   C16425260   1.640   6.090   4.485  0.0538  0.3354 -0.0749
   33HTM    S1725261   1.759   5.954   4.479 -0.2747  0.0483 -0.1356
   34TAL   C16525262   1.603   6.322   4.395  0.3593  0.0023 -1.3354
   34TAL   C16625263   1.674   6.455   4.335  0.1398  0.2017 -0.3044
   34TAL   C16725264   1.784   6.515   4.417 -0.4971  0.9579 -0.9856
   34TAL   C16825265   1.750   6.566   4.560  0.4112  0.3263  0.1940
   34TAL   C16925266   1.615   6.632   4.582 -0.4286  0.1778  0.3965
   34TAL   C17025267   1.585   6.645   4.729  0.0060 -0.0906 -0.2354
   35HTM   C17125268   1.514   6.074   4.555 -0.0934 -0.1039  0.0565
   35HTM   C17225269   1.448   6.170   4.626 -0.3471  0.1724 -0.5524
   35HTM   C17325270   1.315   6.132   4.666 -0.4689  0.3068 -0.8225
   35HTM   C17425271   1.280   6.006   4.627 -0.3081  0.1333 -0.4192
   35HTM    S1825272   1.412   5.926   4.535  0.0122 -0.2169  0.3385
   36TAL   C17525273   1.230   6.240   4.740  0.6923  0.0524  0.0859
   36TAL   C17625274   1.303   6.365   4.793  0.3035 -0.2569 -0.5010
   36TAL   C17725275   1.218   6.462   4.872 -0.2087  0.1312  0.0285
   36TAL   C17825276   1.308   6.569   4.932  0.3289 -0.6763 -0.2413
   36TAL   C17925277   1.240   6.683   5.014 -0.3324  0.2367  0.4249
   36TAL   C18025278   1.340   6.798   5.033 -0.2010  0.7470  0.0081
   37HTM   C18125279   1.146   5.945   4.644 -0.3510 -0.0583 -0.1106
   37HTM   C18225280   1.034   5.964   4.570 -0.5589 -0.1950  0.1678
   37HTM   C18325281   0.925   5.877   4.607 -0.3597 -0.3333  0.4320
   37HTM   C18425282   0.955   5.792   4.709 -0.0000 -0.3024  0.3547
   37HTM    S1925283   1.124   5.816   4.767  0.1160 -0.0942 -0.0613
   38TAL   C18525284   0.789   5.882   4.536  0.0764  0.8317 -0.6187
   38TAL   C18625285   0.770   5.960   4.409  0.9939 -0.2625 -0.2585
   38TAL   C18725286   0.624   5.965   4.371 -0.0452  0.6031  0.0607
   38TAL   C18825287   0.534   6.034   4.471 -0.1809 -0.1496 -0.5712
   38TAL   C18925288   0.389   6.036   4.430 -0.0183  0.2451 -0.4405
   38TAL   C19025289   0.292   6.091   4.531 -0.1295  0.0940  0.1291
   39HTM   C19125290   0.862   5.696   4.773  0.1677 -0.0804  0.0558
   39HTM   C19225291   0.797   5.721   4.890  0.6677 -0.3297  0.3870
   39HTM   C19325292   0.726   5.606   4.942  0.9373 -0.4563  0.4756
   39HTM   C19425293   0.738   5.495   4.864  0.6428 -0.3036  0.2124
   39HTM    S2025294   0.839   5.526   4.718 -0.0028  0.0143 -0.1706
   40TAL   C19525295   0.621   5.616   5.049  0.7144 -0.6187 -0.5438
   40TAL   C19625296   0.596   5.746   5.120 -0.4540  0.6637  0.0240
   40TAL   C19725297   0.686   5.793   5.235  0.9279 -0.0610  0.5544
   40TAL   C19825298   0.677   5.944   5.257 -1.3069 -0.5318 -0.2191
   40TAL   C19925299   0.550   6.009   5.255 -0.3485  0.1628 -0.0896
   40TAL   C20025300   0.542   6.161   5.254 -0.2231  0.6600 -0.0629
   41HTM   C20125301   0.686   5.365   4.891 -0.1970  0.0094  0.0003
   41HTM   C20225302   0.754   5.255   4.934 -0.1956  0.0260  0.0398
   41HTM   C20325303   0.684   5.131   4.914 -0.1966  0.0184  0.0908
   41HTM   C20425304   0.562   5.146   4.855 -0.1989 -0.0045  0.0895
   41HTM    S2125305   0.526   5.319   4.820 -0.1999 -0.0177  0.0239
   42TAL   C20525306   0.760   5.003   4.955 -0.2135 -0.1387  0.0791
   42TAL   C20625307   0.749   4.986   5.108  0.4441 -0.1592  0.3242
   42TAL   C20725308   0.784   4.857   5.187 -0.2588  1.0798 -0.4628
   42TAL   C20825309   0.718   4.730   5.132  0.1117  0.3589 -0.2286
   42TAL   C20925310   0.700   4.615   5.229  0.2421 -0.2627 -0.4201
   42TAL   C21025311   0.821   4.538   5.279 -0.2087 -0.0818 -0.3559
   43HTM   C21125312   0.468   5.046   4.799  0.2232  0.0248 -0.5342
   43HTM   C21225313   0.371   5.076   4.708  0.5370 -0.1099 -0.9146
   43HTM   C21325314   0.292   4.962   4.668  0.4553 -0.1054 -0.7648
   43HTM   C21425315   0.328   4.846   4.729  0.0792  0.0328 -0.2707
   43HTM    S2225316   0.467   4.871   4.842 -0.2032  0.1689  0.0469
   44TAL   C21525317   0.160   4.972   4.581  0.1922  0.4156  0.6095
   44TAL   C21625318   0.052   5.075   4.613 -0.4764 -0.1616 -0.1926
   44TAL   C21725319  -0.071   5.059   4.521  0.0551  0.4841 -0.3964
   44TAL   C21825320  -0.167   4.947   4.558  0.9901  0.0713 -0.3860
   44TAL   C21925321  -0.219   4.951   4.705 -0.3526  0.3850 -0.6256
   44TAL   C22025322  -0.293   4.826   4.747 -0.2072 -0.2702 -0.4730
   45HTM   C22125323   0.277   4.713   4.718 -0.4378  0.2337  0.0157
   45HTM   C22225324   0.329   4.614   4.640 -0.1990  0.3164  0.0694
   45HTM   C22325325   0.246   4.496   4.634  0.1652  0.0489  0.2680
   45HTM   C22425326   0.132   4.505   4.706  0.2040 -0.2376  0.3659
   45HTM    S2325327   0.118   4.664   4.790 -0.2196 -0.1914  0.2136
   46TAL   C22525328   0.288   4.380   4.544 -0.0159  0.0292 -0.5094
   46TAL   C22625329   0.209   4.351   4.415  0.7411  0.4680  0.1925
   46TAL   C22725330   0.218   4.199   4.374  0.2097 -0.9781  0.1179
   46TAL   C22825331   0.141   4.174   4.239 -0.2026 -0.1923 -0.5002
   46TAL   C22925332   0.204   4.246   4.120 -0.1334 -0.2772 -0.7320
   46TAL   C23025333   0.118   4.237   3.990  0.3383 -0.0552 -0.1878
   47HTM   C23125334   0.021   4.420   4.711 -0.0392 -0.0116  0.1289
   47HTM   C23225335   0.026   4.288   4.742  0.1098  0.0169  0.2279
   47HTM   C23325336  -0.103   4.231   4.774  0.1678 -0.1111  0.2339
   47HTM   C23425337  -0.205   4.320   4.768  0.0632 -0.2372  0.1396
   47HTM    S2425338  -0.148   4.484   4.720 -0.1173 -0.2039  0.0350
   48TAL   C23525339  -0.124   4.084   4.805  0.2047 -0.2619  0.1358
   48TAL   C23625340  -0.014   3.992   4.859  0.0950 -0.6447 -0.2432
   48TAL   C23725341  -0.074   3.861   4.887 -0.8278  0.2021 -0.3103
   48TAL   C23825342   0.030   3.765   4.948 -0.3749 -0.2944 -0.4962
   48TAL   C23925343  -0.023   3.644   5.023  0.5696  0.2825  0.4659
   48TAL   C24025344   0.087   3.590   5.128  0.6098  0.4020 -0.0839
    1HTM     C125345   6.738   7.736   7.302 -0.0730  0.1864 -0.1534
    1HTM     C225346   6.676   7.646   7.383 -0.2542  0.3128 -0.1531
    1HTM     C325347   6.763   7.582   7.478 -0.3881  0.1600 -0.1321
    1HTM     C425348   6.893   7.623   7.470 -0.3094 -0.0831 -0.1157
    1HTM     S125349   6.914   7.747   7.340 -0.0572 -0.1378 -0.1261
    2TAL     C525350   6.711   7.482   7.585 -0.2864 -0.1497 -0.4153
    2TAL     C625351   6.621   7.365   7.546  0.5447 -0.8176 -0.5679
    2TAL     C725352   6.646   7.279   7.421 -0.0023  0.3769  0.1516
    2TAL     C825353   6.571   7.146   7.404 -0.5806  0.0606  0.4755
    2TAL     C925354   6.602   7.079   7.279  0.0273  0.6499 -0.2307
    2TAL    C1025355   6.513   6.965   7.237 -0.3291  0.9326 -0.3007
    3HTM    C1125356   7.018   7.579   7.541 -0.2516 -0.2429  0.0073
    3HTM    C1225357   7.113   7.668   7.582 -0.2530 -0.0985 -0.3002
    3HTM    C1325358   7.229   7.606   7.640 -0.0584  0.0856 -0.4933
    3HTM    C1425359   7.223   7.470   7.643  0.0916  0.0820 -0.3328
    3HTM     S225360   7.068   7.409   7.573 -0.0021 -0.1565  0.0774
    4TAL    C1525361   7.340   7.679   7.705 -0.5024  0.3607 -0.2316
    4TAL    C1625362   7.307   7.797   7.800 -0.4921  0.5247  0.3188
    4TAL    C1725363   7.414   7.898   7.825 -0.4201  0.1882  0.1012
    4TAL    C1825364   7.371   8.038   7.864 -0.0193 -0.2528  0.9144
    4TAL    C1925365   7.479   8.117   7.934 -1.0287  0.2451  0.1179
    4TAL    C2025366   7.585   8.181   7.848  0.5106  0.0690 -0.3329
    5HTM    C2125367   7.319   7.365   7.679  0.2659 -0.0372  0.0273
    5HTM    C2225368   7.306   7.236   7.638  0.6771  0.0851 -0.4990
    5HTM    C2325369   7.403   7.147   7.695  0.7095  0.0887 -0.5481
    5HTM    C2425370   7.491   7.208   7.780  0.3231 -0.0307 -0.0599
    5HTM     S325371   7.456   7.385   7.794 -0.1152 -0.1579  0.5051
    6TAL    C2525372   7.388   6.998   7.650  0.5324  0.7733  0.6300
    6TAL    C2625373   7.256   6.928   7.667 -0.2434 -0.3320 -0.4563
    6TAL    C2725374   7.244   6.799   7.589  0.0136  0.4295 -0.5253
    6TAL    C2825375   7.108   6.729   7.610  0.7308 -0.4956  0.3814
    6TAL    C2925376   7.100   6.598   7.527  0.2921  0.2596  0.5748
    6TAL    C3025377   6.989   6.498   7.563 -0.0710 -0.8209  0.4501
    7HTM    C3125378   7.595   7.155   7.863  0.2364 -0.2132  0.0075
    7HTM    C3225379   7.673   7.211   7.960 -0.1466 -0.2751  0.3519
    7HTM    C3325380   7.769   7.119   8.016 -0.2615 -0.2663  0.5631
    7HTM    C3425381   7.765   6.994   7.962  0.0334 -0.1982  0.3786
    7HTM     S425382   7.638   6.982   7.835  0.4828 -0.1387 -0.0781
    8TAL    C3525383   7.877   7.153   8.118 -0.9739 -0.4202  0.4061
    8TAL    C3625384   7.905   7.304   8.141 -0.1087  0.1031  0.2009
    8TAL    C3725385   7.989   7.318   8.265 -0.3214 -0.0923 -0.1083
    8TAL    C3825386   8.013   7.458   8.324  0.0578 -0.5627  0.1603
    8TAL    C3925387   8.075   7.566   8.227  0.0675  0.1344  0.2883
    8TAL    C4025388   8.103   7.705   8.288 -0.3222  0.0106 -0.1431
    9HTM    C4125389   7.834   6.873   7.998  0.2018 -0.2213  0.6893
    9HTM    C4225390   7.794   6.773   8.081  0.4239 -0.5426  0.4101
    9HTM    C4325391   7.895   6.672   8.102  0.5860 -0.4735 -0.0105
    9HTM    C4425392   8.011   6.696   8.036  0.4873 -0.0992 -0.0522
    9HTM     S525393   8.003   6.849   7.940  0.1798  0.1970  0.4408
   10TAL    C4525394   7.883   6.545   8.189  0.5847  0.0457  0.6844
   10TAL    C4625395   7.805   6.576   8.316 -0.1143 -0.0925 -0.4577
   10TAL    C4725396   7.807   6.453   8.400 -0.4073  0.4137 -0.2558
   10TAL    C4825397   7.746   6.326   8.350  0.4760  0.0899 -0.1024
   10TAL    C4925398   7.594   6.326   8.342 -0.7214  0.6559 -0.2324
   10TAL    C5025399   7.538   6.186   8.329  0.3518 -0.1663 -0.4690
   11HTM    C5125400   8.134   6.634   8.037  0.2757  0.5937 -0.2924
   11HTM    C5225401   8.234   6.651   8.128  0.2604  0.2713 -0.2155
   11HTM    C5325402   8.356   6.582   8.095 -0.0229 -0.3428  0.0148
   11HTM    C5425403   8.348   6.512   7.978 -0.2245 -0.4892  0.1133
   11HTM     S625404   8.186   6.529   7.901 -0.0703  0.1429 -0.0780
   12TAL    C5525405   8.474   6.587   8.189  0.0969  0.4700 -0.4945
   12TAL    C5625406   8.563   6.716   8.202 -0.4051  0.5045 -0.1249
   12TAL    C5725407   8.639   6.738   8.076 -0.2572  0.4318 -0.5320
   12TAL    C5825408   8.737   6.852   8.088 -0.8472  0.9322  0.3575
   12TAL    C5925409   8.794   6.877   7.953  0.1244  0.1088  0.5177
   12TAL    C6025410   8.912   6.974   7.941  0.5379 -0.0695  0.6002
   13HTM    C6125411   8.457   6.434   7.921 -0.1708 -0.2648  0.2097
   13HTM    C6225412   8.583   6.473   7.888 -0.2413  0.0288  0.2871
   13HTM    C6325413   8.657   6.375   7.812 -0.0615  0.3104  0.0958
   13HTM    C6425414   8.586   6.262   7.787  0.1449  0.2314 -0.1273
   13HTM     S725415   8.420   6.269   7.857  0.1301 -0.2082 -0.1130
   14TAL    C6525416   8.796   6.418   7.760 -0.0523  0.2127  0.3467
   14TAL    C6625417   8.867   6.541   7.819  0.4156  0.4185 -0.4585
   14TAL    C6725418   9.002   6.553   7.755  0.3363  0.5973  0.0545
   14TAL    C6825419   9.030   6.611   7.617 -0.4241 -0.2732 -0.0937
   14TAL    C6925420   9.138   6.709   7.626 -1.4393 -0.3786  0.0326
   14TAL    C7025421   9.204   6.739   7.483 -0.2333  0.1262 -0.6078
   15HTM    C7125422   8.620   6.150   7.704  0.0825 -0.2362  0.0466
   15HTM    C7225423   8.624   6.018   7.739  0.6638 -0.2122  0.0856
   15HTM    C7325424   8.679   5.933   7.636  0.8159 -0.0305  0.0157
   15HTM    C7425425   8.717   6.000   7.524  0.3508  0.0835 -0.0767
   15HTM     S825426   8.686   6.177   7.539 -0.3210 -0.0302 -0.0829
   16TAL    C7525427   8.695   5.785   7.664  0.1243  0.3948 -0.4511
   16TAL    C7625428   8.572   5.692   7.687 -0.3165  0.9321 -0.5792
   16TAL    C7725429   8.484   5.678   7.568 -0.0444  0.3700 -0.5398
   16TAL    C7825430   8.368   5.581   7.581  0.2081 -0.1969 -0.5539
   16TAL    C7925431   8.403   5.437   7.557 -0.5458  0.2086 -0.1110
   16TAL    C8025432   8.272   5.349   7.544 -0.4376  0.2874  0.2358
   17HTM    C8125433   8.783   5.960   7.405  0.1778 -0.2233 -0.1675
   17HTM    C8225434   8.823   6.046   7.308 -0.3290 -0.1881 -0.3512
   17HTM    C8325435   8.910   5.986   7.210 -0.2537  0.0260 -0.4158
   17HTM    C8425436   8.935   5.854   7.232  0.3109  0.1537 -0.2817
   17HTM     S925437   8.851   5.794   7.380  0.7950  0.0126 -0.0612
   18TAL    C8525438   8.960   6.067   7.084  0.5811  0.0044 -0.5363
   18TAL    C8625439   9.038   6.198   7.114  0.0938 -0.2053  0.0990
   18TAL    C8725440   9.185   6.185   7.160  0.1525 -0.4113 -0.2426
   18TAL    C8825441   9.265   6.315   7.149 -0.1378 -0.0097  0.1762
   18TAL    C8925442   9.411   6.297   7.152  0.4149  0.8053  0.5719
   18TAL    C9025443   9.503   6.390   7.074  0.1126  0.6059  0.3871
   19HTM    C9125444   9.036   5.764   7.172  0.1038 -0.2592 -0.0803
   19HTM    C9225445   9.160   5.802   7.131  0.1249 -0.0985  0.1345
   19HTM    C9325446   9.242   5.693   7.084  0.2762  0.0372  0.0830
   19HTM    C9425447   9.180   5.572   7.087  0.3705 -0.0203 -0.1710
   19HTM    S1025448   9.012   5.586   7.153  0.2748 -0.2523 -0.3666
   20TAL    C9525449   9.373   5.733   7.019 -0.4177  0.1553 -0.3301
   20TAL    C9625450   9.495   5.762   7.116  0.1182 -0.2391 -0.4750
   20TAL    C9725451   9.484   5.891   7.191 -0.0555 -0.1794  0.3399
   20TAL    C9825452   9.622   5.940   7.229  0.0651  0.1327 -0.1874
   20TAL    C9925453   9.631   6.050   7.336 -0.3791 -0.7435 -0.0473
   20TAL   C10025454   9.543   6.041   7.470 -0.1564 -0.3796 -0.3207
   21HTM   C10125455   9.238   5.440   7.075  0.1557 -0.0083 -0.3755
   21HTM   C10225456   9.366   5.410   7.111  0.2538  0.0398 -0.6790
   21HTM   C10325457   9.405   5.275   7.081  0.0961 -0.0699 -0.3910
   21HTM   C10425458   9.307   5.201   7.022 -0.1224 -0.2023  0.1320
   21HTM    S1125459   9.156   5.297   6.999 -0.1459 -0.1983  0.3025
   22TAL   C10525460   9.543   5.228   7.125  0.2034 -0.1047  0.4227
   22TAL   C10625461   9.657   5.235   7.015 -0.1476  0.1924  0.1878
   22TAL   C10725462   9.689   5.371   6.947  0.1960  0.5885 -0.7254
   22TAL   C10825463   9.757   5.481   7.030  0.1485  0.1239  0.0149
   22TAL   C10925464   9.786   5.595   6.939 -0.7729  0.5413  0.2310
   22TAL   C11025465   9.904   5.680   6.980  0.0379  0.1191 -0.2237
   23HTM   C11125466   9.323   5.073   6.949 -0.2498  0.0667  0.2783
   23HTM   C11225467   9.338   5.067   6.814 -0.3548  0.3290  0.2544
   23HTM   C11325468   9.393   4.942   6.767 -0.2340  0.4823 -0.0162
   23HTM   C11425469   9.420   4.853   6.867 -0.0369  0.3366 -0.1985
   23HTM    S1225470   9.378   4.921   7.029  0.0118 -0.0075 -0.0411
   24TAL   C11525471   9.444   4.908   6.624  0.5200  0.5364 -0.5868
   24TAL   C11625472   9.548   5.004   6.568  0.5188  0.3319 -0.0998
   24TAL   C11725473   9.667   5.054   6.650 -0.1273  0.7072  0.1941
   24TAL   C11825474   9.768   4.955   6.690  0.2167  0.2930  0.1454
   24TAL   C11925475   9.856   5.011   6.798 -0.3540  0.0278 -0.1449
   24TAL   C12025476   9.910   4.898   6.882 -0.1943 -0.5048 -0.2926
   25HTM   C12125477   9.478   4.723   6.864  0.1588  0.1071 -0.3852
   25HTM   C12225478   9.411   4.609   6.830  0.2757  0.1988 -0.9305
   25HTM   C12325479   9.493   4.491   6.832  0.3172  0.2241 -1.1666
   25HTM   C12425480   9.623   4.515   6.867  0.2319  0.1515 -0.8006
   25HTM    S1325481   9.651   4.690   6.902  0.0915  0.0450 -0.1248
   26TAL   C12525482   9.434   4.357   6.813 -0.5783  1.0068  0.0978
   26TAL   C12625483   9.447   4.318   6.666 -0.4144 -0.8010 -0.7556
   26TAL   C12725484   9.453   4.166   6.626  0.2253  0.6605  0.4364
   26TAL   C12825485   9.426   4.132   6.484  0.3144  0.3720 -0.1660
   26TAL   C12925486   9.438   3.991   6.441 -0.3545 -0.3104  0.6674
   26TAL   C13025487   9.402   3.996   6.298  0.9091 -0.3498 -0.1110
   27HTM   C13125488   9.737   4.433   6.893 -0.2926 -0.2896  0.1237
   27HTM   C13225489   9.810   4.438   7.009 -0.4552 -0.5240  0.2348
   27HTM   C13325490   9.933   4.363   7.002 -0.4253 -0.4754  0.2444
   27HTM   C13425491   9.955   4.303   6.882 -0.2400 -0.2040  0.1399
   27HTM    S1425492   9.820   4.335   6.767 -0.0875  0.0125  0.0211
   28TAL   C13525493  10.027   4.364   7.124  0.2872 -0.4661  0.4882
   28TAL   C13625494  10.027   4.485   7.222  0.9254  0.6601  0.2607
   28TAL   C13725495  10.056   4.617   7.163  0.6474 -0.8035 -0.3065
   28TAL   C13825496  10.047   4.743   7.246 -1.0001 -0.3149  0.0434
   28TAL   C13925497  10.121   4.746   7.377  0.3071 -0.1246  0.5205
   28TAL   C14025498  10.275   4.763   7.365 -0.3721 -0.2408  0.0340
   29HTM   C14125499  10.063   4.223   6.836 -0.2316 -0.0000 -0.2391
   29HTM   C14225500  10.183   4.267   6.787 -0.3372  0.1075 -0.4020
   29HTM   C14325501  10.269   4.161   6.742 -0.1922  0.1659 -0.2630
   29HTM   C14425502  10.215   4.037   6.757  0.0238  0.1022  0.0065
   29HTM    S1525503  10.050   4.044   6.829  0.0612 -0.0368  0.1060
   30TAL   C14525504  10.410   4.184   6.676  0.1170  0.6300  0.3628
   30TAL   C14625505  10.526   4.226   6.764 -0.7692  0.1651 -0.3359
   30TAL   C14725506  10.670   4.223   6.718  0.4775  0.1956 -0.1954
   30TAL   C14825507  10.733   4.078   6.722  0.5064 -0.0293 -0.0751
   30TAL   C14925508  10.880   4.080   6.696  0.1973  0.4297  0.1159
   30TAL   C15025509  10.942   3.943   6.718 -0.0193 -0.1970  0.2356
   31HTM   C15125510  10.258   3.899   6.734 -0.0405  0.2007 -0.0129
   31HTM   C15225511  10.213   3.804   6.646 -0.3620  0.2704  0.0737
   31HTM   C15325512  10.301   3.691   6.635 -0.6648  0.0387  0.0544
   31HTM   C15425513  10.412   3.699   6.714 -0.5741 -0.2075 -0.0472
   31HTM    S1625514  10.415   3.852   6.809 -0.0956 -0.1655 -0.1268
   32TAL   C15525515  10.259   3.573   6.548 -0.1516  0.5821  0.2754
   32TAL   C15625516  10.281   3.597   6.398  0.4919  0.2018  0.6592
   32TAL   C15725517  10.252   3.480   6.308 -0.7202 -0.2968  0.0919
   32TAL   C15825518  10.359   3.366   6.321 -0.4233 -0.1397 -1.1539
   32TAL   C15925519  10.343   3.270   6.206 -0.2773 -0.1968 -0.0372
   32TAL   C16025520  10.412   3.143   6.232 -0.0484  0.3206 -0.3024
   33HTM   C16125521  10.513   3.604   6.722  0.3256 -0.0700  0.2338
   33HTM   C16225522  10.645   3.637   6.712  0.3696 -0.2437  0.2439
   33HTM   C16325523  10.732   3.523   6.696  0.2015 -0.3446  0.0403
   33HTM   C16425524  10.667   3.403   6.695  0.0293 -0.2479 -0.1257
   33HTM    S1725525  10.488   3.425   6.713  0.0663 -0.0204 -0.0361
   34TAL   C16525526  10.882   3.527   6.697  0.3879  0.1340 -0.4919
   34TAL   C16625527  10.948   3.586   6.575 -0.3102  0.5087  0.0012
   34TAL   C16725528  11.095   3.603   6.600 -0.6945  0.5169  0.6649
   34TAL   C16825529  11.178   3.632   6.475  0.0330 -0.0861 -0.2622
   34TAL   C16925530  11.147   3.756   6.395 -0.2090  0.5885  0.3481
   34TAL   C17025531  11.173   3.888   6.462 -0.1213  0.4245 -0.2623
   35HTM   C17125532  10.707   3.265   6.697 -0.5041  0.1263 -0.1800
   35HTM   C17225533  10.677   3.163   6.612 -0.3490 -0.0793  0.0110
   35HTM   C17325534  10.743   3.039   6.645 -0.0147  0.1293  0.1349
   35HTM   C17425535  10.823   3.046   6.755  0.0852  0.4940  0.0385
   35HTM    S1825536  10.821   3.212   6.826 -0.2377  0.6029 -0.2184
   36TAL   C17525537  10.721   2.921   6.550  0.4766 -0.3442  0.2531
   36TAL   C17625538  10.573   2.888   6.516 -0.2517 -0.5326 -0.5119
   36TAL   C17725539  10.550   2.764   6.437 -0.1344  0.3533 -0.3612
   36TAL   C17825540  10.582   2.632   6.512  0.4020  0.8273  0.2145
   36TAL   C17925541  10.512   2.605   6.645  0.2443  0.1077  0.3876
   36TAL   C18025542  10.571   2.487   6.728 -0.1343 -0.1373  0.6369
   37HTM   C18125543  10.896   2.945   6.833 -0.1453 -0.0465 -0.2896
   37HTM   C18225544  11.020   2.953   6.888 -0.0705  0.0701 -0.4764
   37HTM   C18325545  11.060   2.835   6.960  0.0272  0.2230 -0.2780
   37HTM   C18425546  10.965   2.736   6.960  0.0270  0.2231  0.0594
   37HTM    S1925547  10.818   2.786   6.869 -0.0977  0.0282  0.1542
   38TAL   C18525548  11.197   2.829   7.030 -0.7664 -0.1081  0.5666
   38TAL   C18625549  11.281   2.957   7.036 -0.4148 -0.3470 -0.1004
   38TAL   C18725550  11.402   2.958   7.127  0.5727 -0.2468 -0.5561
   38TAL   C18825551  11.472   3.093   7.139  0.4951  1.0289 -0.1642
   38TAL   C18925552  11.620   3.092   7.169 -0.1929 -0.0912 -0.2337
   38TAL   C19025553  11.705   3.017   7.061 -0.0286  0.1231  0.1289
   39HTM   C19125554  10.974   2.601   7.015  0.1421  0.3839  0.2609
   39HTM   C19225555  10.875   2.527   7.074  0.1277  0.4541  0.3245
   39HTM   C19325556  10.914   2.392   7.103 -0.0494  0.3377  0.0234
   39HTM   C19425557  11.041   2.362   7.066 -0.1696  0.1788 -0.2696
   39HTM    S2025558  11.124   2.503   6.991 -0.0682  0.1638 -0.1876
   40TAL   C19525559  10.810   2.298   7.165  0.3546  0.2847 -0.0807
   40TAL   C19625560  10.786   2.331   7.313 -0.3583 -0.2173 -0.3909
   40TAL   C19725561  10.911   2.345   7.402  0.0721  0.1433 -1.2126
   40TAL   C19825562  10.884   2.299   7.552 -0.0638  0.1990 -0.5563
   40TAL   C19925563  10.875   2.146   7.587 -0.2416 -0.4072 -0.5833
   40TAL   C20025564  10.986   2.052   7.536  0.1337  0.5864 -0.2114
   41HTM   C20125565  11.118   2.239   7.063  0.3372 -0.1683 -0.4100
   41HTM   C20225566  11.218   2.205   6.977  0.1590 -0.5989 -0.4513
   41HTM   C20325567  11.269   2.072   6.996 -0.1359 -0.6795 -0.2134
   41HTM   C20425568  11.208   2.004   7.097 -0.1828 -0.3100  0.0088
   41HTM    S2125569  11.081   2.104   7.177  0.1446  0.1719 -0.0649
   42TAL   C20525570  11.370   2.000   6.906  0.1382 -0.0765  0.3861
   42TAL   C20625571  11.425   2.080   6.782 -0.6670  0.4943  0.6799
   42TAL   C20725572  11.515   2.002   6.695  0.2266 -0.0196  0.4769
   42TAL   C20825573  11.572   2.083   6.579 -0.6684 -0.0073  0.0647
   42TAL   C20925574  11.665   2.199   6.609  0.5911  0.1973 -0.2639
   42TAL   C21025575  11.714   2.239   6.474 -0.0165 -0.3778 -0.1665
   43HTM   C21125576  11.237   1.872   7.163 -0.7431 -0.5393 -0.2981
   43HTM   C21225577  11.182   1.843   7.285 -1.0802 -0.8227 -0.5162
   43HTM   C21325578  11.238   1.725   7.347 -0.6151 -0.4593 -0.2337
   43HTM   C21425579  11.335   1.664   7.273  0.0765  0.1012  0.2005
   43HTM    S2225580  11.364   1.752   7.118  0.1951  0.2143  0.2865
   44TAL   C21525581  11.187   1.676   7.488  0.2543 -0.2150  0.8185
   44TAL   C21625582  11.225   1.767   7.607  0.2314  0.0030  0.4929
   44TAL   C21725583  11.375   1.750   7.642  0.8454 -0.3328 -0.2841
   44TAL   C21825584  11.403   1.761   7.790 -0.3074 -0.1625  0.1735
   44TAL   C21925585  11.550   1.797   7.820  0.4654  0.2123 -0.1530
   44TAL   C22025586  11.582   1.814   7.966  0.1766 -0.5348  0.8433
   45HTM   C22125587  11.420   1.552   7.309  0.2568  0.3884  0.2113
   45HTM   C22225588  11.519   1.503   7.228  0.6555  0.6945  0.5076
   45HTM   C22325589  11.585   1.387   7.281  0.6590  0.7241  0.5691
   45HTM   C22425590  11.536   1.347   7.402  0.2630  0.4408  0.3197
   45HTM    S2325591  11.403   1.454   7.459 -0.1483  0.1117 -0.0144
   46TAL   C22525592  11.684   1.309   7.194  0.0624 -0.1415 -0.5097
   46TAL   C22625593  11.821   1.377   7.164  0.3276  0.1611 -0.0665
   46TAL   C22725594  11.907   1.421   7.278  0.8280 -0.1782  0.2068
   46TAL   C22825595  12.039   1.489   7.240  0.0964  0.4858 -0.8755
   46TAL   C22925596  12.129   1.516   7.365  0.2436 -1.0298 -0.3714
   46TAL   C23025597  12.275   1.535   7.331 -0.3385  0.0523 -0.2387
   47HTM   C23125598  11.571   1.233   7.484 -0.1600  0.1946  0.5164
   47HTM   C23225599  11.694   1.204   7.536 -0.2271  0.5470  0.8793
   47HTM   C23325600  11.699   1.080   7.609 -0.1180  0.6218  0.9997
   47HTM   C23425601  11.579   1.015   7.613  0.0322  0.3265  0.7287
   47HTM    S2425602  11.451   1.105   7.525  0.0476 -0.0720  0.2967
   48TAL   C23525603  11.831   1.027   7.665 -0.1618 -0.1797 -0.3711
   48TAL   C23625604  11.833   0.905   7.763 -0.1164 -0.1760  0.4048
   48TAL   C23725605  11.982   0.874   7.773 -0.2968 -0.1519  0.3347
   48TAL   C23825606  12.011   0.777   7.880 -0.6798 -0.1509 -0.4130
   48TAL   C23925607  12.147   0.709   7.861 -0.0219  0.0033 -0.3246
   48TAL   C24025608  12.206   0.620   7.978 -0.2433 -0.4787 -0.6494
    1HTM     C125609   5.209   5.663   8.076  0.1985 -0.1408 -0.2224
    1HTM     C225610   5.175   5.661   8.208 -0.5426 -0.4351 -0.4168
    1HTM     C325611   5.096   5.775   8.249 -0.9336 -0.6223 -0.6471
    1HTM     C425612   5.070   5.863   8.148 -0.4905 -0.4708 -0.6284
    1HTM     S125613   5.144   5.810   7.993  0.4619 -0.0766 -0.3172
    2TAL     C525614   5.058   5.790   8.400 -0.0251 -0.2629  0.4538
    2TAL     C625615   4.932   5.724   8.458  0.3859 -0.1521  0.0387
    2TAL     C725616   4.921   5.567   8.442  0.1062  0.3095  0.7605
    2TAL     C825617   4.835   5.500   8.544 -0.4781  0.1902 -0.0581
    2TAL     C925618   4.849   5.346   8.551  0.9922 -0.6211  0.3145
    2TAL    C1025619   4.743   5.297   8.639  0.3617 -0.0846  0.2477
    3HTM    C1125620   4.985   5.979   8.147 -0.1288 -0.3103 -0.2487
    3HTM    C1225621   5.018   6.099   8.093 -0.2663 -0.4747 -0.6981
    3HTM    C1325622   4.921   6.202   8.118 -0.3026 -0.4494 -0.9408
    3HTM    C1425623   4.814   6.161   8.192 -0.1931 -0.2661 -0.6758
    3HTM     S225624   4.828   5.986   8.235 -0.0344 -0.1101 -0.0961
    4TAL    C1525625   4.944   6.340   8.058  0.4392 -0.3510 -0.0610
    4TAL    C1625626   4.977   6.448   8.156 -0.3625  0.1092  0.0445
    4TAL    C1725627   4.939   6.593   8.126  0.5527 -0.2445  0.5062
    4TAL    C1825628   4.941   6.688   8.242  0.3604  0.5442 -0.1780
    4TAL    C1925629   4.904   6.830   8.203  0.3843  0.6597  0.7035
    4TAL    C2025630   4.917   6.921   8.324 -0.2122  0.2525  0.5671
    5HTM    C2125631   4.701   6.236   8.250 -0.0457  0.1098  0.4673
    5HTM    C2225632   4.717   6.355   8.314 -0.1631  0.1311  0.4568
    5HTM    C2325633   4.595   6.407   8.369 -0.2794  0.1938  0.1407
    5HTM    C2425634   4.486   6.328   8.347 -0.2512  0.2198 -0.0911
    5HTM     S325635   4.530   6.180   8.254 -0.0737  0.1670  0.0756
    6TAL    C2525636   4.603   6.527   8.460 -0.0368  0.2937 -0.6181
    6TAL    C2625637   4.628   6.659   8.394  0.5265  0.3676 -0.3453
    6TAL    C2725638   4.592   6.783   8.474  0.2313 -0.4971 -0.1680
    6TAL    C2825639   4.446   6.813   8.507  0.8658 -0.1206 -0.5064
    6TAL    C2925640   4.419   6.950   8.578  0.7943  0.4736  0.0384
    6TAL    C3025641   4.271   6.990   8.587 -0.1585  0.1135  0.6147
    7HTM    C3125642   4.357   6.344   8.397 -0.0379 -0.1632 -0.0652
    7HTM    C3225643   4.294   6.241   8.460 -0.1280 -0.2849 -0.3562
    7HTM    C3325644   4.169   6.278   8.521 -0.1755 -0.3870 -0.3905
    7HTM    C3425645   4.137   6.410   8.506 -0.1225 -0.3430 -0.1265
    7HTM     S425646   4.263   6.498   8.412 -0.0068 -0.1680  0.1893
    8TAL    C3525647   4.076   6.165   8.584 -0.1663  0.4845 -0.2531
    8TAL    C3625648   4.130   6.038   8.646  0.1068 -0.1498  0.4627
    8TAL    C3725649   4.032   5.954   8.732 -0.0578  0.2729  0.0094
    8TAL    C3825650   4.094   5.825   8.783  0.0524  0.0807 -0.0324
    8TAL    C3925651   3.988   5.740   8.842  0.2673 -0.0232  0.3235
    8TAL    C4025652   4.053   5.615   8.907  0.4186 -0.2606  0.2176
    9HTM    C4125653   4.032   6.493   8.563 -0.0382  0.2166  0.2522
    9HTM    C4225654   3.910   6.464   8.615 -0.4882  0.6027 -0.5698
    9HTM    C4325655   3.847   6.575   8.682 -0.6794  0.8538 -1.1568
    9HTM    C4425656   3.922   6.689   8.681 -0.3754  0.6594 -0.7829
    9HTM     S525657   4.078   6.665   8.595  0.1807  0.1400  0.3487
   10TAL    C4525658   3.711   6.560   8.742 -0.3857 -0.2694  0.4663
   10TAL    C4625659   3.687   6.440   8.832 -0.2971 -0.4631 -0.3264
   10TAL    C4725660   3.759   6.461   8.967 -0.0374  0.8191 -0.0961
   10TAL    C4825661   3.769   6.324   9.031 -0.2033 -0.0578 -0.2749
   10TAL    C4925662   3.863   6.226   8.961 -0.4765 -0.6218 -0.6131
   10TAL    C5025663   3.887   6.090   9.030 -0.1939 -0.2920  0.5914
   11HTM    C5125664   3.907   6.818   8.753 -0.6708  0.0779  0.1287
   11HTM    C5225665   3.961   6.841   8.876 -1.1303 -0.0370  0.3529
   11HTM    C5325666   3.958   6.980   8.916 -1.0850 -0.0439  0.3805
   11HTM    C5425667   3.902   7.062   8.822 -0.5910  0.0662  0.1772
   11HTM     S625668   3.848   6.970   8.677 -0.1412  0.1874 -0.0660
   12TAL    C5525669   4.013   7.019   9.056  0.8331 -0.8736 -0.2579
   12TAL    C5625670   4.130   6.933   9.109  0.1660  0.5362  0.2305
   12TAL    C5725671   4.255   6.938   9.029 -0.2338 -0.0269  0.7108
   12TAL    C5825672   4.345   6.823   9.065 -0.4160  0.6652  0.2505
   12TAL    C5925673   4.295   6.678   9.063 -0.5696  0.0818 -0.6269
   12TAL    C6025674   4.246   6.628   8.928  0.2108 -0.2363  0.2910
   13HTM    C6125675   3.870   7.199   8.827  0.0625 -0.0971  0.0039
   13HTM    C6225676   3.765   7.261   8.767 -0.0405 -0.2398  0.0381
   13HTM    C6325677   3.743   7.397   8.812 -0.2985 -0.3171  0.1512
   13HTM    C6425678   3.833   7.438   8.907 -0.3921 -0.2333  0.2039
   13HTM     S725679   3.952   7.308   8.946 -0.1600 -0.0489  0.1130
   14TAL    C6525680   3.625   7.485   8.761 -0.3569 -0.2564  0.0398
   14TAL    C6625681   3.480   7.435   8.762 -0.0676  0.7764 -0.0105
   14TAL    C6725682   3.372   7.533   8.708 -0.5031  0.5535  0.2786
   14TAL    C6825683   3.226   7.486   8.732 -0.5148  0.3635 -0.3199
   14TAL    C6925684   3.141   7.578   8.660 -0.2151 -0.5180  0.2333
   14TAL    C7025685   2.985   7.554   8.673  0.2811 -0.3917  0.8302
   15HTM    C7125686   3.840   7.551   8.990  0.2032  0.0766 -0.0446
   15HTM    C7225687   3.845   7.548   9.127  0.3279  0.2441 -0.0434
   15HTM    C7325688   3.883   7.673   9.186  0.1165  0.3943 -0.2232
   15HTM    C7425689   3.907   7.772   9.096 -0.1693  0.3408 -0.3599
   15HTM     S825690   3.884   7.714   8.927 -0.1941  0.0954 -0.2727
   16TAL    C7525691   3.886   7.686   9.342  0.0433  0.1232 -0.8358
   16TAL    C7625692   3.898   7.566   9.439 -0.2574 -0.1158 -0.3260
   16TAL    C7725693   3.857   7.597   9.591 -0.1726 -0.7683 -0.1362
   16TAL    C7825694   3.846   7.478   9.689  0.0736 -0.1798  0.0849
   16TAL    C7925695   3.963   7.383   9.722  0.2574  0.2528 -0.0642
   16TAL    C8025696   3.937   7.257   9.804  0.2505 -0.2977 -0.0562
   17HTM    C8125697   3.972   7.901   9.118  0.4271 -0.4265  0.0652
   17HTM    C8225698   4.048   7.929   9.228  0.7153 -0.4194 -0.1345
   17HTM    C8325699   4.100   8.063   9.229  0.5646 -0.3595 -0.1912
   17HTM    C8425700   4.065   8.137   9.120  0.1613 -0.3216 -0.0349
   17HTM     S925701   3.961   8.042   9.007 -0.0606 -0.3572  0.1980
   18TAL    C8525702   4.204   8.099   9.339  0.1078  0.9717  0.1255
   18TAL    C8625703   4.261   7.985   9.433 -0.0733  0.1819 -0.0280
   18TAL    C8725704   4.172   7.890   9.509 -0.5995  0.3442 -0.2053
   18TAL    C8825705   4.245   7.781   9.583  0.3670  0.4572 -0.6498
   18TAL    C8925706   4.256   7.647   9.508  0.7974 -0.1801  0.0015
   18TAL    C9025707   4.329   7.549   9.587 -0.1181 -0.0271 -0.7429
   19HTM    C9125708   4.088   8.277   9.089 -0.4244  0.3571  0.6620
   19HTM    C9225709   3.999   8.380   9.074 -0.0476  0.7052  0.7724
   19HTM    C9325710   4.059   8.510   9.075  0.4926  0.4578  0.4141
   19HTM    C9425711   4.195   8.507   9.089  0.5274 -0.0789  0.0306
   19HTM    S1025712   4.257   8.339   9.104 -0.1243 -0.3147  0.0927
   20TAL    C9525713   3.968   8.630   9.047 -0.8544  0.3715 -0.1251
   20TAL    C9625714   3.950   8.666   8.902  0.1504 -0.7610  0.5033
   20TAL    C9725715   4.078   8.698   8.821 -0.3245  0.0138  0.3358
   20TAL    C9825716   4.065   8.665   8.671 -0.1308  0.0377 -0.4693
   20TAL    C9925717   4.175   8.720   8.580  0.5033 -0.2999  0.6002
   20TAL   C10025718   4.158   8.685   8.430 -0.2172 -0.4089  0.5801
   21HTM   C10125719   4.297   8.612   9.108  0.4351 -0.2371  0.1703
   21HTM   C10225720   4.431   8.589   9.112  0.4463 -0.1225  0.4412
   21HTM   C10325721   4.509   8.707   9.141  0.3028 -0.0124  0.3826
   21HTM   C10425722   4.434   8.819   9.158  0.1821 -0.0437  0.0670
   21HTM    S1125723   4.258   8.785   9.140  0.2405 -0.2146 -0.1825
   22TAL   C10525724   4.661   8.684   9.159  0.7137  0.5907  0.2658
   22TAL   C10625725   4.703   8.638   9.298 -0.1544  0.2701 -0.3850
   22TAL   C10725726   4.852   8.590   9.294  0.0525  0.5417 -0.1749
   22TAL   C10825727   4.963   8.679   9.239  0.3061 -0.2315  0.8172
   22TAL   C10925728   4.995   8.801   9.318  0.4001  0.6183  0.7878
   22TAL   C11025729   5.118   8.872   9.256 -0.3984 -0.0493  0.1543
   23HTM   C11125730   4.479   8.952   9.191 -0.0066 -0.2606  0.1668
   23HTM   C11225731   4.400   9.058   9.224  0.0925 -0.3462  0.6941
   23HTM   C11325732   4.472   9.180   9.246  0.1540 -0.3881  0.7295
   23HTM   C11425733   4.607   9.168   9.230  0.1015 -0.3352  0.2292
   23HTM    S1225734   4.653   9.000   9.185 -0.0304 -0.2263 -0.3298
   24TAL   C11525735   4.394   9.301   9.289  0.1901 -0.5503  0.2459
   24TAL   C11625736   4.299   9.287   9.408 -0.1076 -0.1940 -0.4554
   24TAL   C11725737   4.348   9.231   9.539 -0.3064 -0.0581 -0.5989
   24TAL   C11825738   4.482   9.294   9.582  0.2206  0.0247  0.5501
   24TAL   C11925739   4.529   9.265   9.725  0.1029 -0.1876 -0.8311
   24TAL   C12025740   4.666   9.321   9.740  0.3281 -0.1993  0.6113
   25HTM   C12125741   4.722   9.257   9.240 -0.1377 -0.2946  0.1989
   25HTM   C12225742   4.853   9.230   9.212 -0.1223 -0.4668  0.4357
   25HTM   C12325743   4.938   9.347   9.214 -0.0114 -0.5464  0.3738
   25HTM   C12425744   4.871   9.462   9.243  0.0579 -0.4349  0.0898
   25HTM    S1325745   4.695   9.433   9.270 -0.0123 -0.2190 -0.1232
   26TAL   C12525746   5.091   9.334   9.187 -0.6324 -0.2949 -0.7713
   26TAL   C12625747   5.151   9.219   9.248  0.3194 -0.4391 -0.5955
   26TAL   C12725748   5.300   9.245   9.279 -0.0006  0.2577 -0.6005
   26TAL   C12825749   5.360   9.133   9.363 -0.4266 -0.1845  0.6381
   26TAL   C12925750   5.502   9.172   9.391  0.1515 -0.6421 -0.4583
   26TAL   C13025751   5.578   9.085   9.495  0.7432  0.4302 -0.3065
   27HTM   C13125752   4.915   9.601   9.243  0.0506 -0.0408 -0.1117
   27HTM   C13225753   4.850   9.715   9.206  0.1771  0.0671 -0.0019
   27HTM   C13325754   4.926   9.835   9.230  0.3734 -0.0507 -0.0280
   27HTM   C13425755   5.049   9.813   9.286  0.3961 -0.2485 -0.1576
   27HTM    S1425756   5.078   9.637   9.312  0.1702 -0.3016 -0.2576
   28TAL   C13525757   4.873   9.976   9.193 -0.1543 -0.2160  0.0873
   28TAL   C13625758   4.723  10.003   9.221 -0.1902  0.1461  0.5127
   28TAL   C13725759   4.645  10.107   9.134  0.0845  0.4326 -0.3766
   28TAL   C13825760   4.494  10.079   9.149 -0.4952 -0.0878 -0.8536
   28TAL   C13925761   4.399  10.175   9.086  0.0347  0.3865  0.0301
   28TAL   C14025762   4.385  10.319   9.137 -0.6820  0.1314  0.0055
   29HTM   C14125763   5.149   9.907   9.341 -0.0068 -0.3532  0.4347
   29HTM   C14225764   5.126  10.027   9.401 -0.1974 -0.5474  0.7522
   29HTM   C14325765   5.239  10.078   9.475 -0.1700 -0.4050  0.6110
   29HTM   C14425766   5.348   9.997   9.471  0.0419 -0.1023  0.1858
   29HTM    S1525767   5.317   9.849   9.373  0.2242  0.0274 -0.0712
   30TAL   C14525768   5.223  10.198   9.569 -0.1090 -0.4038 -0.4322
   30TAL   C14625769   5.205  10.327   9.496  0.4379  0.0213 -0.6388
   30TAL   C14725770   5.068  10.348   9.435  0.4561 -0.4149 -0.8000
   30TAL   C14825771   5.051  10.477   9.350 -0.1570  0.8392 -0.3938
   30TAL   C14925772   5.107  10.603   9.410 -0.3503 -0.4369 -0.0603
   30TAL   C15025773   5.118  10.722   9.317  0.0409 -0.5037  0.7444
   31HTM   C15125774   5.470   9.995   9.551 -0.0389 -0.1643  0.2283
   31HTM   C15225775   5.492   9.934   9.671  0.2310 -0.3167  0.1008
   31HTM   C15325776   5.621   9.964   9.728  0.2799 -0.2290 -0.0551
   31HTM   C15425777   5.697  10.048   9.652  0.0467 -0.0098 -0.0466
   31HTM    S1625778   5.610  10.096   9.501 -0.2544  0.1039  0.1607
   32TAL   C15525779   5.661   9.916   9.865 -0.0766  0.4672  0.2224
   32TAL   C15625780   5.685   9.765   9.871 -0.5292 -0.0433 -0.5988
   32TAL   C15725781   5.788   9.714   9.975  0.1122  0.3538  0.5730
   32TAL   C15825782   5.936   9.746   9.952  0.1776 -0.4214  0.0121
   32TAL   C15925783   6.004   9.697   9.823  0.7784 -0.5161  0.2988
   32TAL   C16025784   6.151   9.727   9.815 -0.7701 -0.0686 -0.5848
   33HTM   C16125785   5.820  10.114   9.678 -0.0728  0.1200  0.1309
   33HTM   C16225786   5.844  10.248   9.663  0.2789  0.0351 -0.0671
   33HTM   C16325787   5.983  10.283   9.680  0.3505 -0.2850  0.0280
   33HTM   C16425788   6.064  10.177   9.707  0.0537 -0.4445  0.2984
   33HTM    S1725789   5.971  10.023   9.714 -0.3426 -0.2006  0.4553
   34TAL   C16525790   6.011  10.431   9.675  0.1115  0.3551  0.2299
   34TAL   C16625791   5.922  10.538   9.742  0.1380 -0.1697  0.0229
   34TAL   C16725792   5.987  10.675   9.762 -0.4485 -0.0761  0.5271
   34TAL   C16825793   5.909  10.778   9.852  0.3140  0.8261 -0.3038
   34TAL   C16925794   5.937  10.758  10.002 -0.3240  0.1037 -0.2859
   34TAL   C17025795   5.871  10.863  10.093  0.0324 -0.0314  0.4783
   35HTM   C17125796   6.205  10.166   9.720 -0.3485 -0.1353  0.2270
   35HTM   C17225797   6.283  10.076   9.653 -0.5817 -0.1484 -0.0294
   35HTM   C17325798   6.424  10.092   9.677 -0.4995 -0.1792 -0.4837
   35HTM   C17425799   6.454  10.194   9.762 -0.2034 -0.1895 -0.5737
   35HTM    S1825800   6.305  10.279   9.819 -0.0042 -0.1610 -0.0878
   36TAL   C17525801   6.528  10.000   9.604  0.2450 -0.2436 -0.4037
   36TAL   C17625802   6.570  10.030   9.462  0.4424 -0.2008 -0.4371
   36TAL   C17725803   6.462  10.013   9.353  0.1021 -0.5614 -0.1752
   36TAL   C17825804   6.515  10.034   9.215  0.3842 -0.4548  0.2985
   36TAL   C17925805   6.401  10.055   9.116  0.4787  0.1559 -0.0022
   36TAL   C18025806   6.448  10.090   8.979  0.0204  0.4245  0.4288
   37HTM   C18125807   6.579  10.247   9.818 -0.1727  0.1018 -0.2183
   37HTM   C18225808   6.700  10.185   9.821 -0.2360 -0.0281 -0.3794
   37HTM   C18325809   6.802  10.258   9.891 -0.0625 -0.1356 -0.5170
   37HTM   C18425810   6.759  10.377   9.943  0.1335 -0.0877 -0.4607
   37HTM    S1925811   6.584  10.405   9.905  0.1129  0.0984 -0.2278
   38TAL   C18525812   6.936  10.197   9.897 -0.0829 -0.2803  0.5120
   38TAL   C18625813   7.066  10.275   9.916  0.1785 -0.3462  0.4420
   38TAL   C18725814   7.119  10.356   9.802  0.0129  0.2506  0.8462
   38TAL   C18825815   7.143  10.275   9.672 -0.5893 -0.4286 -0.3033
   38TAL   C18925816   7.227  10.350   9.577  0.1350 -0.3921 -0.0349
   38TAL   C19025817   7.271  10.280   9.449  0.7081 -0.3156 -0.6503
   39HTM   C19125818   6.819  10.474  10.034 -0.3305 -0.0984 -0.4545
   39HTM   C19225819   6.904  10.451  10.138 -0.7453 -0.2930 -0.1599
   39HTM   C19325820   6.925  10.565  10.222 -1.0121 -0.4261  0.0913
   39HTM   C19425821   6.858  10.676  10.182 -0.8005 -0.3332 -0.0119
   39HTM    S2025822   6.760  10.645  10.034 -0.2432 -0.0681 -0.4375
   40TAL   C19525823   7.010  10.545  10.350 -0.3807  0.1215 -0.4445
   40TAL   C19625824   6.952  10.464  10.459  0.3640  0.1034 -0.0637
   40TAL   C19725825   7.009  10.479  10.599 -0.0472 -0.1788 -0.3872
   40TAL   C19825826   6.962  10.375  10.692 -0.6073  1.1858 -0.1765
   40TAL   C19925827   7.060  10.309  10.791 -0.7269 -0.6911 -0.2816
   40TAL   C20025828   7.191  10.251  10.746 -0.1721  0.3915 -0.7926
   41HTM   C20125829   6.849  10.805  10.241  0.2169  0.1552 -0.2536
   41HTM   C20225830   6.949  10.895  10.264  0.1340  0.2595 -0.2991
   41HTM   C20325831   6.902  11.022  10.313  0.0355  0.1611 -0.1373
   41HTM   C20425832   6.767  11.029  10.328  0.0428 -0.0182  0.0315
   41HTM    S2125833   6.687  10.875  10.279  0.1765 -0.0771 -0.0010
   42TAL   C20525834   7.010  11.126  10.344  0.1111 -0.5087  0.4875
   42TAL   C20625835   7.049  11.200  10.212  0.2276 -0.1909  0.2460
   42TAL   C20725836   7.155  11.305  10.213 -0.3471 -0.3513 -0.1429
   42TAL   C20825837   7.287  11.272  10.295 -0.0415  0.3619  0.3864
   42TAL   C20925838   7.386  11.378  10.259  0.0360 -0.2431  1.0921
   42TAL   C21025839   7.509  11.383  10.360  0.6118 -0.5411  0.5502
   43HTM   C21125840   6.681  11.142  10.371 -0.2269  0.0142 -0.6274
   43HTM   C21225841   6.546  11.125  10.385 -0.3123 -0.0190 -1.4152
   43HTM   C21325842   6.477  11.245  10.427 -0.5279 -0.1322 -1.4492
   43HTM   C21425843   6.559  11.353  10.443 -0.6072 -0.1857 -0.6873
   43HTM    S2225844   6.731  11.312  10.408 -0.4141 -0.0959  0.1386
   44TAL   C21525845   6.329  11.249  10.436  0.5455 -0.4941  0.4350
   44TAL   C21625846   6.284  11.231  10.578 -0.5667 -0.0215 -0.2418
   44TAL   C21725847   6.139  11.260  10.582 -0.0393 -0.2494  0.3660
   44TAL   C21825848   6.095  11.196  10.715  0.1223  0.2409 -0.6664
   44TAL   C21925849   5.950  11.220  10.754  0.4756  0.3881 -0.5305
   44TAL   C22025850   5.888  11.362  10.763  0.4473 -0.6322  0.3056
   45HTM   C22125851   6.531  11.489  10.492 -0.1505 -0.1232 -0.3925
   45HTM   C22225852   6.568  11.541  10.612 -0.5937 -0.5550 -0.0682
   45HTM   C22325853   6.522  11.676  10.633 -0.8781 -0.7131  0.3517
   45HTM   C22425854   6.451  11.727  10.528 -0.6524 -0.4020  0.3475
   45HTM    S2325855   6.436  11.607  10.394 -0.0584  0.1190 -0.1914
   46TAL   C22525856   6.562  11.756  10.759 -0.0030  0.0502  0.0442
   46TAL   C22625857   6.650  11.885  10.759  0.1385  0.8265  0.2323
   46TAL   C22725858   6.773  11.861  10.671 -0.2418  0.2581  0.3617
   46TAL   C22825859   6.769  11.889  10.520 -0.3961  0.0008 -0.1696
   46TAL   C22925860   6.770  12.039  10.483  0.3866  0.0503 -0.3282
   46TAL   C23025861   6.894  12.107  10.526 -0.4075  0.4986 -0.5857
   47HTM   C23125862   6.378  11.852  10.520 -0.0638 -0.3428  0.1530
   47HTM   C23225863   6.395  11.954  10.432  0.4702 -0.2990  0.3045
   47HTM   C23325864   6.317  12.071  10.463  0.8800 -0.0296  0.3300
   47HTM   C23425865   6.240  12.058  10.575  0.6586  0.1321  0.1979
   47HTM    S2425866   6.261  11.895  10.650 -0.0903 -0.0447  0.0297
   48TAL   C23525867   6.334  12.190  10.368  0.0231 -0.2150 -0.8197
   48TAL   C23625868   6.237  12.306  10.374 -0.0867  0.4239 -0.3292
   48TAL   C23725869   6.268  12.433  10.288 -0.2045  0.5745 -0.1990
   48TAL   C23825870   6.165  12.545  10.319  0.0842 -0.7813 -0.0521
   48TAL   C23925871   6.019  12.526  10.283 -0.8606 -0.4744  0.0341
   48TAL   C24025872   5.960  12.667  10.269  0.2478  0.0193 -0.4125
    1HTM     C125873   3.666   1.960   2.689 -0.0600 -0.3076  0.1463
    1HTM     C225874   3.670   1.979   2.824  0.1119 -0.5850  0.1802
    1HTM     C325875   3.547   1.943   2.891  0.1202 -0.5091  0.2356
    1HTM     C425876   3.450   1.898   2.807 -0.0453 -0.1738  0.2437
    1HTM     S125877   3.506   1.896   2.635 -0.2256  0.0739  0.1818
    2TAL     C525878   3.507   1.963   3.039  0.0361  0.2637 -0.7407
    2TAL     C625879   3.573   2.062   3.129  0.0963  0.1603 -0.2683
    2TAL     C725880   3.537   2.089   3.278 -0.0968  0.2944 -0.4138
    2TAL     C825881   3.503   1.959   3.352 -0.0382 -0.2447 -0.0041
    2TAL     C925882   3.469   1.973   3.499  0.0399 -0.7472 -0.0675
    2TAL    C1025883   3.428   1.845   3.560  0.1621  0.0960  0.3028
    3HTM    C1125884   3.313   1.864   2.816  0.0490  0.0074 -0.1161
    3HTM    C1225885   3.252   1.744   2.795 -0.0714  0.0333  0.0787
    3HTM    C1325886   3.110   1.746   2.815 -0.0479  0.1701  0.2295
    3HTM    C1425887   3.062   1.869   2.851  0.0905  0.2486  0.1498
    3HTM     S225888   3.194   1.991   2.863  0.2028  0.1549 -0.1239
    4TAL    C1525889   3.022   1.622   2.785 -0.4882  0.1529 -0.3188
    4TAL    C1625890   3.030   1.500   2.872  0.1322  0.5211 -0.0997
    4TAL    C1725891   3.163   1.421   2.879  0.0976 -0.0119 -0.1194
    4TAL    C1825892   3.226   1.376   2.744 -0.7105  0.3547 -0.1330
    4TAL    C1925893   3.154   1.262   2.673  0.0057 -0.5797  0.4145
    4TAL    C2025894   3.221   1.214   2.548  0.4778 -0.0888 -0.1244
    5HTM    C2125895   2.923   1.918   2.869  0.1177  0.1600  0.1340
    5HTM    C2225896   2.897   2.047   2.907  0.1681  0.3107 -0.3314
    5HTM    C2325897   2.758   2.073   2.931  0.1720  0.4677 -0.4814
    5HTM    C2425898   2.677   1.965   2.911  0.1245  0.4368 -0.1302
    5HTM     S325899   2.772   1.820   2.860  0.0706  0.2053  0.4213
    6TAL    C2525900   2.727   2.217   2.974  0.5431 -0.8263  0.0586
    6TAL    C2625901   2.672   2.242   3.112  0.3480  0.3491  0.2842
    6TAL    C2725902   2.642   2.383   3.156 -0.5618 -0.0686  0.2213
    6TAL    C2825903   2.527   2.462   3.090  0.5148 -0.3518  0.1498
    6TAL    C2925904   2.394   2.385   3.114  0.0582 -0.3983 -0.6899
    6TAL    C3025905   2.303   2.419   2.995 -0.3185 -0.5510  0.6106
    7HTM    C3125906   2.540   1.942   2.938  0.1221  0.0875  0.5652
    7HTM    C3225907   2.429   2.019   2.917  0.1414  0.0659  0.3873
    7HTM    C3325908   2.306   1.956   2.955  0.0849  0.0164  0.1279
    7HTM    C3425909   2.322   1.830   3.006  0.0226  0.0003  0.1081
    7HTM     S425910   2.496   1.782   3.009  0.0306  0.0466  0.4178
    8TAL    C3525911   2.173   2.030   2.930  0.4970 -0.3963 -0.0407
    8TAL    C3625912   2.118   2.115   3.042 -0.5188 -0.6086  0.1474
    8TAL    C3725913   2.080   2.039   3.170 -0.0344 -0.3884  0.0138
    8TAL    C3825914   2.059   2.103   3.305  0.3983 -0.4161  0.0498
    8TAL    C3925915   2.181   2.156   3.377  0.2777  0.3991 -0.0184
    8TAL    C4025916   2.320   2.085   3.373  0.6449  0.6861 -0.4546
    9HTM    C4125917   2.234   1.727   3.058 -0.1536  0.2138  0.4234
    9HTM    C4225918   2.098   1.714   3.046 -0.1897  0.3923  0.6281
    9HTM    C4325919   2.046   1.598   3.114 -0.2018  0.2985  0.4582
    9HTM    C4425920   2.141   1.523   3.177 -0.1752  0.0486  0.1243
    9HTM     S525921   2.305   1.594   3.156 -0.1327 -0.0887 -0.0027
   10TAL    C4525922   1.898   1.558   3.110 -0.7613  0.7380  0.1422
   10TAL    C4625923   1.803   1.606   3.000  0.1826  0.3735 -0.0667
   10TAL    C4725924   1.755   1.749   2.997  0.6823 -0.4378 -0.0275
   10TAL    C4825925   1.658   1.781   3.111  0.3827 -0.4630 -0.3262
   10TAL    C4925926   1.598   1.920   3.100 -0.0934 -0.2331  0.3669
   10TAL    C5025927   1.691   2.038   3.156  0.0125 -0.6592 -0.4215
   11HTM    C5125928   2.144   1.400   3.253  0.2456  0.3747 -0.0766
   11HTM    C5225929   2.046   1.321   3.305  0.1441  0.6812  0.1990
   11HTM    C5325930   2.095   1.207   3.377 -0.0068  0.7706  0.4504
   11HTM    C5425931   2.231   1.198   3.379 -0.0204  0.5322  0.3662
   11HTM     S625932   2.308   1.335   3.290  0.1577  0.1735 -0.0399
   12TAL    C5525933   2.008   1.104   3.448 -0.1910  0.0774 -0.3140
   12TAL    C5625934   1.856   1.115   3.461 -0.5819  0.0569  0.1105
   12TAL    C5725935   1.791   1.023   3.554  0.2892  0.0244 -0.5693
   12TAL    C5825936   1.822   0.878   3.525 -0.3707  0.6169 -0.1387
   12TAL    C5925937   1.713   0.777   3.574  0.3290  0.7560  0.4759
   12TAL    C6025938   1.723   0.639   3.513 -0.7803 -0.3247  0.3323
   13HTM    C6125939   2.328   1.109   3.438 -0.1525 -0.0559  0.4063
   13HTM    C6225940   2.309   0.990   3.502 -0.1675 -0.4024 -0.2272
   13HTM    C6325941   2.431   0.928   3.548 -0.1715 -0.6887 -0.6011
   13HTM    C6425942   2.543   1.000   3.518 -0.1594 -0.5605 -0.2525
   13HTM     S725943   2.503   1.152   3.429 -0.1419 -0.0644  0.5812
   14TAL    C6525944   2.418   0.799   3.628  0.1037  0.2132 -0.3438
   14TAL    C6625945   2.309   0.799   3.736 -0.3851  0.9790 -0.1381
   14TAL    C6725946   2.286   0.680   3.827 -0.4382  0.0649 -0.3464
   14TAL    C6825947   2.224   0.546   3.776  0.5114  0.6984 -0.1339
   14TAL    C6925948   2.101   0.572   3.695  1.0939  0.7027 -0.5204
   14TAL    C7025949   2.015   0.447   3.671  0.0936 -0.5461  0.8666
   15HTM    C7125950   2.682   0.979   3.533 -0.4118 -0.2790  0.7146
   15HTM    C7225951   2.775   1.076   3.555 -0.5687 -0.1364  0.7471
   15HTM    C7325952   2.910   1.027   3.563 -0.4289  0.1470  0.1827
   15HTM    C7425953   2.920   0.892   3.547 -0.1650  0.2206 -0.2799
   15HTM     S825954   2.759   0.816   3.520 -0.0724 -0.0646 -0.0370
   16TAL    C7525955   3.028   1.120   3.586  0.1360 -0.0167 -0.1223
   16TAL    C7625956   3.002   1.259   3.623 -0.1450  0.7725  0.5395
   16TAL    C7725957   2.952   1.357   3.515  0.1183 -0.4602  0.0753
   16TAL    C7825958   2.950   1.500   3.546 -0.8150 -0.3581 -0.3611
   16TAL    C7925959   3.079   1.568   3.585  0.3270 -0.4679 -0.7580
   16TAL    C8025960   3.055   1.714   3.620 -0.9066  0.3725  0.2972
   17HTM    C8125961   3.040   0.801   3.551 -0.0057  0.2219  0.3499
   17HTM    C8225962   3.046   0.672   3.596  0.0582  0.2736  0.4917
   17HTM    C8325963   3.179   0.616   3.591  0.0890  0.3398  0.5699
   17HTM    C8425964   3.273   0.702   3.544  0.0489  0.3386  0.4879
   17HTM     S925965   3.202   0.861   3.500 -0.0318  0.2531  0.3039
   18TAL    C8525966   3.197   0.463   3.616  0.8420  0.0615  0.9936
   18TAL    C8625967   3.079   0.361   3.597  0.0990  0.2690  1.0963
   18TAL    C8725968   3.100   0.216   3.642 -0.3628  0.0482 -0.4510
   18TAL    C8825969   3.011   0.110   3.570  0.4181  0.0344  0.4796
   18TAL    C8925970   2.862   0.144   3.559 -0.1871 -0.1041 -0.0300
   18TAL    C9025971   2.774   0.028   3.529 -0.8957  0.0115 -0.1251
   19HTM    C9125972   3.424   0.693   3.535  0.0327  0.0269 -0.1050
   19HTM    C9225973   3.502   0.790   3.479  0.0585 -0.0922 -0.2792
   19HTM    C9325974   3.641   0.754   3.470  0.0485 -0.1468 -0.2184
   19HTM    C9425975   3.669   0.630   3.519  0.0150 -0.0693  0.0019
   19HTM    S1025976   3.521   0.547   3.580 -0.0067  0.0798  0.1510
   20TAL    C9525977   3.741   0.851   3.408  0.8480 -1.0756  0.1866
   20TAL    C9625978   3.702   0.983   3.332  0.5733  0.1070 -0.1959
   20TAL    C9725979   3.593   0.974   3.232  0.3323  0.3983 -0.3700
   20TAL    C9825980   3.589   1.103   3.149 -0.3203  0.3785 -0.1376
   20TAL    C9925981   3.498   1.103   3.029 -0.0739  0.2511 -0.4027
   20TAL   C10025982   3.478   1.250   2.986 -0.2230  0.2149 -0.3501
   21HTM   C10125983   3.797   0.561   3.527 -0.1808  0.1197  0.4312
   21HTM   C10225984   3.917   0.625   3.535 -0.2537  0.2215  0.7631
   21HTM   C10325985   4.030   0.535   3.540 -0.1698  0.3200  0.6472
   21HTM   C10425986   3.995   0.403   3.537 -0.0328  0.2934  0.2267
   21HTM    S1125987   3.817   0.382   3.526  0.0011  0.1406 -0.0574
   22TAL   C10525988   4.175   0.588   3.538  0.5972 -0.2471 -0.0649
   22TAL   C10625989   4.201   0.732   3.472  0.0828  0.6082 -0.5672
   22TAL   C10725990   4.346   0.773   3.469  0.2425  0.1884  0.1063
   22TAL   C10825991   4.354   0.906   3.402  0.2508  0.0123 -0.0191
   22TAL   C10925992   4.499   0.946   3.383  0.2617 -0.3454 -0.0232
   22TAL   C11025993   4.525   1.079   3.311 -0.1768  0.2380  0.0165
   23HTM   C11125994   4.073   0.280   3.534  0.1815  0.1252  0.0345
   23HTM   C11225995   4.031   0.150   3.542  0.0632  0.1470 -0.2429
   23HTM   C11325996   4.138   0.054   3.531 -0.0098  0.0751 -0.3265
   23HTM   C11425997   4.261   0.110   3.515  0.0528 -0.0016 -0.1128
   23HTM    S1225998   4.252   0.291   3.513  0.2098  0.0113  0.2131
   24TAL   C11525999   4.111  -0.095   3.522 -0.2889  0.0595 -0.0092
   24TAL   C11626000   4.051  -0.130   3.383 -0.2218  0.6510 -0.2639
   24TAL   C11726001   4.074  -0.266   3.361 -0.4530  0.2457  0.0306
   24TAL   C11826002   4.015  -0.304   3.224  0.4174 -0.2223  0.9006
   24TAL   C11926003   4.020  -0.448   3.189  0.1338 -0.1537  0.0300
   24TAL   C12026004   4.146  -0.503   3.124  0.0984 -0.8208  0.1405
   25HTM   C12126005   4.393   0.051   3.526 -0.3563 -0.0576 -0.2288
   25HTM   C12226006   4.432  -0.036   3.624 -0.3507  0.1011 -0.0880
   25HTM   C12326007   4.563  -0.092   3.603 -0.2379  0.2789  0.1419
   25HTM   C12426008   4.624  -0.047   3.490 -0.1583  0.2553  0.1761
   25HTM    S1326009   4.521   0.070   3.400 -0.2196  0.0051 -0.0812
   26TAL   C12526010   4.625  -0.182   3.712  0.4457 -0.4409 -0.0651
   26TAL   C12626011   4.535  -0.298   3.757  0.0744  0.2006  0.0125
   26TAL   C12726012   4.504  -0.389   3.643  0.3603 -0.2834  0.8848
   26TAL   C12826013   4.427  -0.513   3.692 -0.5349  0.2172  0.0710
   26TAL   C12926014   4.366  -0.598   3.577 -0.2305  0.1045 -0.7914
   26TAL   C13026015   4.287  -0.722   3.620 -0.2945 -0.5710 -0.2968
   27HTM   C13126016   4.758  -0.076   3.439 -0.0221  0.2990 -0.3407
   27HTM   C13226017   4.824   0.006   3.352 -0.0701  0.1731 -0.4966
   27HTM   C13326018   4.951  -0.047   3.309 -0.0074  0.1974 -0.3419
   27HTM   C13426019   4.982  -0.168   3.363  0.0885  0.3406 -0.0680
   27HTM    S1426020   4.851  -0.227   3.473  0.1070  0.4580  0.0162
   28TAL   C13526021   5.042   0.024   3.212  0.1870  0.1984  0.3279
   28TAL   C13626022   5.104   0.162   3.260  0.0298  0.0548 -0.0828
   28TAL   C13726023   5.194   0.171   3.390 -0.4855  0.0667  0.5921
   28TAL   C13826024   5.207   0.312   3.432 -0.0854 -0.6094 -0.0161
   28TAL   C13926025   5.282   0.326   3.560  0.3498  0.5816  0.0772
   28TAL   C14026026   5.250   0.461   3.614  0.2140  0.3808 -0.0509
   29HTM   C14126027   5.109  -0.240   3.357 -0.1214  0.2676 -0.4092
   29HTM   C14226028   5.118  -0.373   3.388 -0.3526  0.3390 -0.0322
   29HTM   C14326029   5.249  -0.429   3.363 -0.3765  0.1030  0.3729
   29HTM   C14426030   5.339  -0.340   3.313 -0.1637 -0.1489  0.3046
   29HTM    S1526031   5.265  -0.176   3.293  0.0857 -0.1067 -0.2807
   30TAL   C14526032   5.289  -0.563   3.414  0.6259 -0.1229 -0.1138
   30TAL   C14626033   5.205  -0.695   3.388 -0.1234 -0.5202  0.3345
   30TAL   C14726034   5.193  -0.744   3.244 -0.4126 -0.0448  0.0633
   30TAL   C14826035   5.111  -0.868   3.215  0.3067  0.4451 -0.9660
   30TAL   C14926036   5.123  -0.920   3.071 -0.2321  0.7458 -0.5470
   30TAL   C15026037   5.029  -1.035   3.036 -0.2417  0.7365  0.1609
   31HTM   C15126038   5.479  -0.343   3.279  0.1412  0.3456  0.5048
   31HTM   C15226039   5.571  -0.243   3.269  0.2623  0.2236  0.3928
   31HTM   C15326040   5.702  -0.288   3.230  0.0830  0.0844 -0.0536
   31HTM   C15426041   5.710  -0.423   3.211 -0.1747  0.1006 -0.2821
   31HTM    S1626042   5.552  -0.503   3.241 -0.2112  0.2943  0.0515
   32TAL   C15526043   5.822  -0.194   3.227  0.0337  0.4629  0.0993
   32TAL   C15626044   5.846  -0.102   3.344 -0.3062  0.5685 -0.0343
   32TAL   C15726045   5.951  -0.002   3.309 -0.1850 -0.0867 -0.0683
   32TAL   C15826046   6.007   0.066   3.431 -0.1330  0.3738 -0.0886
   32TAL   C15926047   6.093   0.191   3.394  0.7138  0.6307 -0.4380
   32TAL   C16026048   6.152   0.261   3.514  0.2688  0.0462  0.2307
   33HTM   C16126049   5.829  -0.505   3.171 -0.5633  0.3821 -0.6951
   33HTM   C16226050   5.842  -0.640   3.185 -0.5529  0.4497 -0.0635
   33HTM   C16326051   5.968  -0.692   3.140 -0.3123  0.3228  0.7321
   33HTM   C16426052   6.052  -0.597   3.090 -0.1400  0.1586  0.7072
   33HTM    S1726053   5.977  -0.433   3.097 -0.2683  0.1507 -0.3313
   34TAL   C16526054   5.994  -0.845   3.143  0.3617  0.1316  0.1823
   34TAL   C16626055   5.932  -0.936   3.253 -0.5068 -0.3366 -0.3757
   34TAL   C16726056   5.968  -1.080   3.240 -0.5437 -0.2362  0.3521
   34TAL   C16826057   5.892  -1.183   3.329 -0.7058 -0.1037  0.4420
   34TAL   C16926058   5.883  -1.154   3.476  0.2762 -0.2171  0.1968
   34TAL   C17026059   6.015  -1.179   3.549  0.7278 -0.1866 -0.6053
   35HTM   C17126060   6.199  -0.609   3.054 -0.2108 -0.3194  0.3647
   35HTM   C17226061   6.301  -0.531   3.099 -0.3979 -0.0424  0.3110
   35HTM   C17326062   6.431  -0.576   3.059 -0.2947  0.3147  0.2377
   35HTM   C17426063   6.429  -0.689   2.983 -0.0291  0.3093  0.2357
   35HTM    S1826064   6.260  -0.747   2.956  0.1124 -0.1495  0.3269
   36TAL   C17526065   6.560  -0.497   3.095 -0.0112 -0.3108 -0.1237
   36TAL   C17626066   6.599  -0.365   3.018 -0.3691  0.0264  0.0740
   36TAL   C17726067   6.733  -0.299   3.050  0.4619  0.6826  0.4138
   36TAL   C17826068   6.731  -0.157   2.983 -0.4467 -0.0443  0.3065
   36TAL   C17926069   6.835  -0.064   3.038  0.0637 -0.2802  0.3352
   36TAL   C18026070   6.826   0.075   2.973  0.0465 -0.2533  0.2846
   37HTM   C18126071   6.531  -0.779   2.936 -0.0266  0.2607 -0.2254
   37HTM   C18226072   6.523  -0.915   2.934 -0.1879  0.2694 -0.2244
   37HTM   C18326073   6.643  -0.979   2.886 -0.2337  0.1249 -0.1467
   37HTM   C18426074   6.742  -0.892   2.851 -0.1081  0.0061 -0.0886
   37HTM    S1926075   6.691  -0.721   2.877  0.0795  0.0681 -0.1279
   38TAL   C18526076   6.656  -1.129   2.888  0.4977 -0.0514 -0.2870
   38TAL   C18626077   6.652  -1.190   3.031 -0.4505 -0.6426  0.2731
   38TAL   C18726078   6.644  -1.342   3.035  0.0352  0.1395 -0.6092
   38TAL   C18826079   6.517  -1.404   2.989 -0.2390  0.3477 -0.0819
   38TAL   C18926080   6.495  -1.544   3.047 -0.2007  0.4306 -0.6487
   38TAL   C19026081   6.463  -1.644   2.944 -0.0423 -0.4628 -0.4288
   39HTM   C19126082   6.878  -0.918   2.796 -0.3044 -0.1355  0.4735
   39HTM   C19226083   6.963  -0.829   2.737 -0.6437  0.1035  0.3418
   39HTM   C19326084   7.089  -0.886   2.698 -0.5672  0.4401  0.0869
   39HTM   C19426085   7.101  -1.019   2.728 -0.1696  0.4586  0.0245
   39HTM    S2026086   6.952  -1.082   2.808  0.1412  0.0498  0.2845
   40TAL   C19526087   7.186  -0.794   2.627 -0.3144  0.8277  0.0281
   40TAL   C19626088   7.263  -0.686   2.707 -0.2303  0.3046  0.3655
   40TAL   C19726089   7.379  -0.730   2.800 -0.2891 -0.1680  0.2586
   40TAL   C19826090   7.445  -0.624   2.884  0.1831 -0.1068  0.2707
   40TAL   C19926091   7.522  -0.519   2.814  0.1928 -0.2478  0.1820
   40TAL   C20026092   7.588  -0.408   2.903 -0.5000 -0.2952  0.7164
   41HTM   C20126093   7.218  -1.108   2.704  0.2076 -0.2011 -0.4500
   41HTM   C20226094   7.214  -1.243   2.727  0.1755 -0.2007 -0.4532
   41HTM   C20326095   7.340  -1.309   2.706  0.2198 -0.1922 -0.2218
   41HTM   C20426096   7.440  -1.225   2.666  0.2860 -0.1858 -0.0420
   41HTM    S2126097   7.382  -1.054   2.653  0.2972 -0.1904 -0.1519
   42TAL   C20526098   7.350  -1.459   2.739 -0.2906 -0.1452 -0.0400
   42TAL   C20626099   7.230  -1.545   2.725  0.2027 -0.5398 -0.0939
   42TAL   C20726100   7.253  -1.691   2.757 -0.3099  0.3868 -0.2043
   42TAL   C20826101   7.292  -1.728   2.903  0.0252 -0.2428  0.2552
   42TAL   C20926102   7.317  -1.875   2.932 -0.1465  0.2360 -0.7075
   42TAL   C21026103   7.305  -1.900   3.083 -0.0520  0.2910 -0.1268
   43HTM   C21126104   7.581  -1.249   2.642  0.0122  0.1409  0.9085
   43HTM   C21226105   7.665  -1.154   2.591  0.3011  0.5324  2.0835
   43HTM   C21326106   7.794  -1.204   2.554  0.2823  0.6735  1.8224
   43HTM   C21426107   7.810  -1.338   2.577 -0.0207  0.3899  0.4480
   43HTM    S2226108   7.661  -1.411   2.647 -0.3083 -0.0813 -0.6311
   44TAL   C21526109   7.895  -1.094   2.511  0.2103  0.5844  0.2914
   44TAL   C21626110   8.043  -1.124   2.487  0.0840 -0.0604  1.2944
   44TAL   C21726111   8.117  -0.988   2.473  0.0699 -0.0407  0.1458
   44TAL   C21826112   8.264  -0.989   2.448  0.3988 -0.2192  0.0924
   44TAL   C21926113   8.318  -1.050   2.316  0.3906 -0.2245 -0.2884
   44TAL   C22026114   8.472  -1.082   2.313 -0.1538 -0.8479  0.1088
   45HTM   C22126115   7.918  -1.429   2.548 -0.0169 -0.3155  0.0354
   45HTM   C22226116   7.966  -1.532   2.623  0.0165 -0.4170 -0.1231
   45HTM   C22326117   8.060  -1.616   2.554  0.0753 -0.2544 -0.2402
   45HTM   C22426118   8.084  -1.577   2.426  0.0880 -0.0286 -0.1710
   45HTM    S2326119   7.989  -1.431   2.382  0.0238 -0.0044  0.0492
   46TAL   C22526120   8.112  -1.746   2.611 -0.2364 -0.3915  0.3139
   46TAL   C22626121   8.038  -1.818   2.726 -0.0379 -0.5395 -0.0501
   46TAL   C22726122   8.118  -1.933   2.790 -0.1547 -0.1902 -1.1801
   46TAL   C22826123   8.040  -2.021   2.890 -0.9776  0.1548  0.3220
   46TAL   C22926124   7.897  -2.077   2.863  0.0408  0.6631 -0.2530
   46TAL   C23026125   7.871  -2.157   2.739 -0.5639  0.5855  0.3755
   47HTM   C23126126   8.172  -1.636   2.324 -0.0526  0.3210  0.3746
   47HTM   C23226127   8.190  -1.764   2.281 -0.4740  0.3679  0.0539
   47HTM   C23326128   8.296  -1.779   2.184 -0.6375  0.2909 -0.1124
   47HTM   C23426129   8.358  -1.662   2.153 -0.3422  0.1855  0.0813
   47HTM    S2426130   8.288  -1.523   2.245  0.1709  0.1749  0.4922
   48TAL   C23526131   8.319  -1.924   2.138 -0.3782 -0.3203  0.4356
   48TAL   C23626132   8.437  -1.959   2.041 -0.2381 -0.1391 -0.1820
   48TAL   C23726133   8.404  -1.910   1.898 -0.1360  1.0271 -0.3835
   48TAL   C23826134   8.527  -1.951   1.808 -0.4788 -0.4883  0.5406
   48TAL   C23926135   8.514  -1.920   1.659  0.0769 -0.1560  0.6912
   48TAL   C24026136   8.444  -1.791   1.607 -0.3470  0.2486 -0.4993
    1HTM     C126137   8.983   2.522   3.550  0.0286 -0.1207 -0.0461
    1HTM     C226138   9.075   2.452   3.621 -0.0639  0.1085  0.3011
    1HTM     C326139   9.196   2.525   3.648 -0.2041  0.2862  0.4539
    1HTM     C426140   9.196   2.651   3.596 -0.2186  0.1923  0.2232
    1HTM     S126141   9.042   2.688   3.510 -0.0547 -0.1302 -0.2082
    2TAL     C526142   9.316   2.453   3.711  0.1690  0.2831  0.3223
    2TAL     C626143   9.296   2.416   3.863 -0.2236 -0.1379 -0.1580
    2TAL     C726144   9.279   2.531   3.960  0.2225 -0.5418 -0.2193
    2TAL     C826145   9.260   2.508   4.116 -0.4506 -0.1116 -0.0983
    2TAL     C926146   9.388   2.440   4.172 -0.2270  0.1757  0.6087
    2TAL    C1026147   9.377   2.417   4.323 -0.4214 -0.0488 -0.5235
    3HTM    C1126148   9.298   2.752   3.605 -0.5030 -0.0661  0.3185
    3HTM    C1226149   9.343   2.812   3.492 -0.8879 -0.1082  0.1402
    3HTM    C1326150   9.450   2.906   3.514 -0.7789 -0.1333 -0.2615
    3HTM    C1426151   9.486   2.918   3.645 -0.3109 -0.1103 -0.3895
    3HTM     S226152   9.387   2.810   3.751  0.0311 -0.0546 -0.0099
    4TAL    C1526153   9.527   2.989   3.413 -0.4878  0.4116  0.7152
    4TAL    C1626154   9.516   2.945   3.266 -0.1005  0.5232  0.0022
    4TAL    C1726155   9.582   2.808   3.231  0.4651  0.7446  1.0657
    4TAL    C1826156   9.563   2.777   3.085 -0.8286  0.7869 -0.3059
    4TAL    C1926157   9.610   2.635   3.047  0.2604 -0.3653  0.3122
    4TAL    C2026158   9.615   2.600   2.900 -0.1891  0.5301  0.0337
    5HTM    C2126159   9.589   2.994   3.716  0.2378 -0.0385 -0.0501
    5HTM    C2226160   9.683   2.942   3.800  0.3637 -0.1241 -0.2410
    5HTM    C2326161   9.776   3.041   3.851  0.3539 -0.1510 -0.1708
    5HTM    C2426162   9.752   3.167   3.805  0.2206 -0.0859  0.0735
    5HTM     S326163   9.611   3.172   3.693  0.0961  0.0151  0.2351
    6TAL    C2526164   9.881   3.008   3.957 -0.1262 -0.1126  0.2619
    6TAL    C2626165   9.872   2.883   4.031  0.3265  0.5066 -0.4492
    6TAL    C2726166  10.003   2.862   4.102 -0.0906  0.2431  0.0846
    6TAL    C2826167  10.045   2.724   4.144  0.3791  0.4655  0.2551
    6TAL    C2926168  10.190   2.722   4.189  0.4007  0.5491 -0.9058
    6TAL    C3026169  10.251   2.597   4.255  0.2287 -0.3323 -0.1225
    7HTM    C3126170   9.807   3.297   3.835  0.0521 -0.0697 -0.3657
    7HTM    C3226171   9.737   3.405   3.881 -0.1446 -0.2444 -0.2525
    7HTM    C3326172   9.821   3.515   3.921 -0.3188 -0.3351  0.3728
    7HTM    C3426173   9.955   3.491   3.905 -0.2548 -0.2298  0.7362
    7HTM     S426174   9.985   3.326   3.838  0.0324 -0.0059  0.3137
    8TAL    C3526175   9.762   3.642   3.980 -0.1326 -0.3717 -0.4840
    8TAL    C3626176   9.669   3.635   4.105 -0.3694  0.1797  0.3251
    8TAL    C3726177   9.736   3.614   4.244 -0.5589 -0.2394  0.4347
    8TAL    C3826178   9.837   3.503   4.270 -0.2498 -0.1028  0.2858
    8TAL    C3926179   9.776   3.367   4.235  0.4369  0.1015 -0.3965
    8TAL    C4026180   9.869   3.251   4.268  0.6422 -0.0539  0.2494
    9HTM    C4126181  10.068   3.581   3.927 -0.3897  0.2229  0.1259
    9HTM    C4226182  10.167   3.609   3.838 -0.5216  0.1619 -0.0392
    9HTM    C4326183  10.259   3.710   3.883 -0.1653 -0.1628 -0.0348
    9HTM    C4426184  10.230   3.759   4.007  0.2382 -0.3495  0.1335
    9HTM     S526185  10.084   3.681   4.077  0.1992 -0.1278  0.3013
   10TAL    C4526186  10.376   3.755   3.793  0.3420 -0.7274  0.3074
   10TAL    C4626187  10.405   3.690   3.655  0.3107 -0.1407 -0.0577
   10TAL    C4726188  10.423   3.534   3.653 -0.9554 -0.4732 -0.1430
   10TAL    C4826189  10.535   3.476   3.742  0.5261  0.1688 -0.5005
   10TAL    C4926190  10.535   3.327   3.723  0.4240  0.1225 -0.0756
   10TAL    C5026191  10.629   3.246   3.806 -1.0314  0.4049 -0.2877
   11HTM    C5126192  10.291   3.837   4.104  0.0007 -0.5243  0.0733
   11HTM    C5226193  10.296   3.972   4.125 -0.2995 -0.5367  0.2275
   11HTM    C5326194  10.346   4.008   4.255 -0.3299 -0.5739  0.2499
   11HTM    C5426195  10.379   3.902   4.333 -0.0528 -0.5901  0.1123
   11HTM     S626196  10.350   3.746   4.248  0.2705 -0.5590 -0.0569
   12TAL    C5526197  10.363   4.162   4.290  0.0265  0.6070  0.6234
   12TAL    C5626198  10.307   4.282   4.207  0.2187  0.9844  0.0100
   12TAL    C5726199  10.160   4.274   4.157 -0.3223 -0.1314 -0.1390
   12TAL    C5826200  10.116   4.405   4.085  0.4672  0.3409  0.0741
   12TAL    C5926201   9.979   4.387   4.021 -0.1497 -0.1593  0.4058
   12TAL    C6026202   9.948   4.500   3.917 -0.2290  0.6174  0.3005
   13HTM    C6126203  10.441   3.899   4.462  0.0244  0.3416  0.0222
   13HTM    C6226204  10.558   3.952   4.509 -0.0243  0.2878  0.2060
   13HTM    C6326205  10.586   3.919   4.646 -0.0781 -0.0244  0.1435
   13HTM    C6426206  10.490   3.842   4.705 -0.0704 -0.2089 -0.0875
   13HTM     S726207  10.356   3.803   4.589  0.0060 -0.0007 -0.2458
   14TAL    C6526208  10.702   3.977   4.730  0.0483  0.3532  0.3733
   14TAL    C6626209  10.766   4.103   4.663 -0.6778  0.0518 -0.5197
   14TAL    C6726210  10.875   4.167   4.752  0.2756  0.0222  0.6801
   14TAL    C6826211  10.892   4.312   4.716 -0.0898 -0.1858 -0.1700
   14TAL    C6926212  11.029   4.361   4.742 -0.1273  0.1760  0.3239
   14TAL    C7026213  11.058   4.508   4.709  0.8031  1.1006 -0.2135
   15HTM    C7126214  10.463   3.782   4.836  0.1666  0.1671 -0.2073
   15HTM    C7226215  10.545   3.726   4.930  0.2577 -0.1050 -0.4466
   15HTM    C7326216  10.477   3.683   5.049  0.3874 -0.3581 -0.4625
   15HTM    C7426217  10.342   3.706   5.046  0.3954 -0.2791 -0.2349
   15HTM     S826218  10.292   3.784   4.891  0.2383  0.1243  0.0188
   16TAL    C7526219  10.550   3.625   5.170  0.0740  0.0379 -0.2067
   16TAL    C7626220  10.604   3.487   5.152  0.6091 -0.1287  0.2428
   16TAL    C7726221  10.496   3.376   5.133  0.3856 -0.4030 -0.8086
   16TAL    C7826222  10.543   3.240   5.084 -0.0154 -0.3042  0.4509
   16TAL    C7926223  10.661   3.178   5.159  0.7062 -0.0714  0.4599
   16TAL    C8026224  10.731   3.072   5.075  0.1929 -0.0903  0.4107
   17HTM    C8126225  10.236   3.682   5.140 -0.0960 -0.5056 -0.2483
   17HTM    C8226226  10.207   3.578   5.224 -0.0357 -0.8413 -0.6375
   17HTM    C8326227  10.075   3.584   5.281  0.0718 -0.9618 -0.3703
   17HTM    C8426228  10.002   3.693   5.240  0.0935 -0.7179  0.2224
   17HTM     S926229  10.097   3.796   5.126 -0.0210 -0.3141  0.4915
   18TAL    C8526230  10.019   3.476   5.376  0.3451 -0.5027  0.1402
   18TAL    C8626231  10.087   3.337   5.374 -0.2313  0.3397  0.1921
   18TAL    C8726232  10.040   3.234   5.476 -0.5247  0.5362  0.0081
   18TAL    C8826233  10.131   3.112   5.491  0.4169 -0.1014  0.3618
   18TAL    C8926234  10.102   3.003   5.582 -0.1475  0.4843  0.1824
   18TAL    C9026235   9.976   2.933   5.554 -0.3183  0.0942 -0.3527
   19HTM    C9126236   9.859   3.719   5.242  0.2512 -0.3692  0.4850
   19HTM    C9226237   9.758   3.628   5.257  0.2524 -0.3722  0.4761
   19HTM    C9326238   9.627   3.683   5.232  0.2679 -0.4225  0.2789
   19HTM    C9426239   9.628   3.815   5.199  0.2784 -0.4582  0.1375
   19HTM    S1026240   9.796   3.882   5.196  0.2695 -0.4305  0.2433
   20TAL    C9526241   9.501   3.596   5.242 -0.0534  0.2751 -0.0757
   20TAL    C9626242   9.506   3.455   5.289  0.4385  0.0381  0.7599
   20TAL    C9726243   9.592   3.347   5.214  0.3917 -0.5503  0.1463
   20TAL    C9826244   9.595   3.210   5.266 -0.4941 -0.3348 -0.4145
   20TAL    C9926245   9.646   3.205   5.406 -0.4048 -0.2494  0.3784
   20TAL   C10026246   9.620   3.064   5.450  0.3916 -0.3706  0.0104
   21HTM   C10126247   9.515   3.907   5.166 -0.0998  0.3412 -0.0778
   21HTM   C10226248   9.502   3.995   5.063 -0.3843  0.2456 -0.1245
   21HTM   C10326249   9.378   4.068   5.064 -0.4529  0.1268  0.0553
   21HTM   C10426250   9.297   4.036   5.169 -0.2208  0.1318  0.2390
   21HTM    S1126251   9.371   3.910   5.274  0.1051  0.2887  0.1989
   22TAL   C10526252   9.327   4.155   4.947 -0.4921  0.3192 -0.2122
   22TAL   C10626253   9.383   4.132   4.810 -0.3742 -0.4722  0.6144
   22TAL   C10726254   9.410   3.996   4.749  0.4143 -0.0152  0.4372
   22TAL   C10826255   9.447   3.995   4.605  0.0949  0.8237 -0.1377
   22TAL   C10926256   9.486   3.862   4.561 -0.0980  0.7357 -0.0894
   22TAL   C11026257   9.550   3.855   4.425 -0.0607 -0.8655 -0.2277
   23HTM   C11126258   9.157   4.066   5.196  0.3831  0.2355 -0.1080
   23HTM   C11226259   9.063   3.973   5.229  0.5404  0.0845 -0.0858
   23HTM   C11326260   8.928   4.023   5.226  0.4625 -0.1192 -0.0041
   23HTM   C11426261   8.919   4.154   5.191  0.2463 -0.1232  0.0363
   23HTM    S1226262   9.082   4.226   5.159  0.1223  0.1319 -0.0263
   24TAL   C11526263   8.800   3.933   5.232  0.1766  0.2632 -0.3862
   24TAL   C11626264   8.806   3.804   5.320 -0.1258 -0.6632  0.2097
   24TAL   C11726265   8.689   3.703   5.311  0.2020 -0.0799 -0.3604
   24TAL   C11826266   8.654   3.659   5.174  0.2219 -0.1382  1.5589
   24TAL   C11926267   8.515   3.597   5.178 -0.4059  0.8222 -0.5622
   24TAL   C12026268   8.456   3.558   5.041  0.1024 -0.1146  0.4474
   25HTM   C12126269   8.811   4.249   5.174 -0.1853  0.2555 -0.1728
   25HTM   C12226270   8.677   4.226   5.166 -0.2093  0.2654  0.1724
   25HTM   C12326271   8.598   4.345   5.153 -0.2384  0.2739  0.4227
   25HTM   C12426272   8.672   4.460   5.151 -0.2362  0.2709  0.2684
   25HTM    S1326273   8.848   4.425   5.166 -0.1979  0.2569 -0.2090
   26TAL   C12526274   8.445   4.325   5.143 -0.1102 -0.3350  0.3756
   26TAL   C12626275   8.396   4.249   5.019  0.3705 -0.5483 -0.1697
   26TAL   C12726276   8.438   4.287   4.874 -0.6716 -0.1890  0.1209
   26TAL   C12826277   8.378   4.422   4.818  0.6596 -0.1035  0.0800
   26TAL   C12926278   8.447   4.459   4.694  0.0230 -0.0738  0.9132
   26TAL   C13026279   8.417   4.594   4.645  0.3496 -0.5109 -0.6382
   27HTM   C13126280   8.613   4.597   5.163 -0.0976 -0.0559 -0.4485
   27HTM   C13226281   8.665   4.701   5.234  0.1984 -0.0854 -0.6227
   27HTM   C13326282   8.585   4.820   5.231  0.3033 -0.0093 -0.4313
   27HTM   C13426283   8.470   4.807   5.158  0.0860  0.0776 -0.1112
   27HTM    S1426284   8.456   4.642   5.086 -0.2691  0.0706 -0.0262
   28TAL   C13526285   8.633   4.934   5.313  0.1893  0.1804 -0.0194
   28TAL   C13626286   8.699   5.047   5.224  0.0622 -0.3917  0.3163
   28TAL   C13726287   8.755   5.169   5.304  0.5154  0.3625 -0.8639
   28TAL   C13826288   8.670   5.235   5.406  0.6432 -0.6362  0.3129
   28TAL   C13926289   8.733   5.329   5.505 -0.0309  1.5238  0.3244
   28TAL   C14026290   8.634   5.387   5.601  0.1884 -0.2713  0.7901
   29HTM   C14126291   8.366   4.901   5.139  0.0472  0.0484 -0.1853
   29HTM   C14226292   8.375   5.033   5.104  0.0272  0.0730 -0.0980
   29HTM   C14326293   8.248   5.093   5.073  0.0257  0.0548 -0.1276
   29HTM   C14426294   8.142   5.008   5.083  0.0455  0.0164 -0.2374
   29HTM    S1526295   8.195   4.843   5.134  0.0672  0.0004 -0.3126
   30TAL   C14526296   8.246   5.240   5.034  0.1029 -0.1480  0.3507
   30TAL   C14626297   8.293   5.336   5.149 -0.2414  0.3629  0.5677
   30TAL   C14726298   8.209   5.348   5.276  0.8690  0.7087 -0.4838
   30TAL   C14826299   8.273   5.446   5.377 -0.0519  0.5828 -0.0572
   30TAL   C14926300   8.200   5.462   5.511 -0.5686 -0.4503 -0.0855
   30TAL   C15026301   8.274   5.570   5.594 -0.3648 -0.2331 -0.1861
   31HTM   C15126302   8.000   5.033   5.073 -0.1866 -0.4001 -0.0563
   31HTM   C15226303   7.910   4.937   5.037 -0.1662 -0.5097  0.1850
   31HTM   C15326304   7.776   4.987   5.022 -0.2317 -0.6342  0.3500
   31HTM   C15426305   7.764   5.121   5.045 -0.3019 -0.6197  0.2340
   31HTM    S1626306   7.922   5.195   5.089 -0.2906 -0.4465 -0.0945
   32TAL   C15526307   7.667   4.883   5.006  0.2177  0.3304  0.1943
   32TAL   C15626308   7.524   4.914   4.962  0.2858 -0.3247  0.9429
   32TAL   C15726309   7.420   4.808   5.002 -0.0973 -1.2291  0.0682
   32TAL   C15826310   7.283   4.838   4.938  0.3273 -0.1239  0.2240
   32TAL   C15926311   7.173   4.742   4.967 -0.5034  0.1713 -0.2583
   32TAL   C16026312   7.059   4.756   4.870  0.2278 -0.0751 -0.2470
   33HTM   C16126313   7.653   5.214   5.054 -0.1835  0.4025  0.0063
   33HTM   C16226314   7.611   5.272   5.170 -0.6464  0.1097 -0.0095
   33HTM   C16326315   7.485   5.340   5.159 -0.7968 -0.2050 -0.2379
   33HTM   C16426316   7.430   5.334   5.035 -0.4484 -0.1523 -0.3959
   33HTM    S1726317   7.534   5.241   4.921  0.1008  0.3027 -0.2678
   34TAL   C16526318   7.431   5.418   5.272  0.0493 -0.1964  0.1382
   34TAL   C16626319   7.513   5.537   5.324 -0.3284  0.2233  0.0652
   34TAL   C16726320   7.637   5.510   5.416 -0.3936 -0.3664 -0.0848
   34TAL   C16826321   7.681   5.637   5.493 -0.5272  0.6483  0.0915
   34TAL   C16926322   7.778   5.600   5.605 -0.3220 -0.3549  0.1822
   34TAL   C17026323   7.854   5.727   5.660 -0.1093  0.5195 -0.7081
   35HTM   C17126324   7.299   5.365   4.983 -0.0769  0.3393 -0.1376
   35HTM   C17226325   7.256   5.473   4.912 -0.3393  0.4725  0.2265
   35HTM   C17326326   7.123   5.459   4.860 -0.2697  0.2854  0.0975
   35HTM   C17426327   7.064   5.340   4.891  0.0459  0.0092 -0.3648
   35HTM    S1826328   7.174   5.235   4.988  0.2810 -0.0357 -0.6758
   36TAL   C17526329   7.064   5.560   4.765 -0.2454 -0.4554 -0.2397
   36TAL   C17626330   7.130   5.586   4.632 -0.3686 -0.6191 -0.0426
   36TAL   C17726331   7.061   5.666   4.526  0.2070 -0.1911 -0.0190
   36TAL   C17826332   6.927   5.612   4.474  0.3260 -0.1481 -0.0567
   36TAL   C17926333   6.889   5.698   4.349 -0.3198  0.2410  0.3121
   36TAL   C18026334   6.750   5.662   4.290 -0.1009  0.2798 -0.1346
   37HTM   C18126335   6.931   5.288   4.872 -0.2849 -0.1999  0.1549
   37HTM   C18226336   6.816   5.353   4.839 -0.3707 -0.1481  0.5529
   37HTM   C18326337   6.709   5.266   4.798 -0.4871 -0.0870  0.7257
   37HTM   C18426338   6.743   5.134   4.800 -0.4897 -0.0927  0.4595
   37HTM    S1926339   6.914   5.110   4.854 -0.3444 -0.1756 -0.0334
   38TAL   C18526340   6.565   5.312   4.784  0.3055 -1.2092  0.2193
   38TAL   C18626341   6.546   5.452   4.727  0.3634 -0.1714 -0.2748
   38TAL   C18726342   6.401   5.487   4.743 -0.2641 -0.4109  0.3062
   38TAL   C18826343   6.352   5.618   4.669 -0.4488  0.2244  0.0613
   38TAL   C18926344   6.208   5.659   4.689 -0.3354 -0.9635 -0.3387
   38TAL   C19026345   6.110   5.547   4.659 -0.7803 -0.1744  0.5678
   39HTM   C19126346   6.673   5.020   4.752 -0.0423 -0.2528  0.2017
   39HTM   C19226347   6.736   4.903   4.723 -0.3185 -0.3891  0.1509
   39HTM   C19326348   6.646   4.798   4.680 -0.5379 -0.0889 -0.1283
   39HTM   C19426349   6.515   4.836   4.676 -0.4294  0.2761 -0.2905
   39HTM    S2026350   6.494   5.008   4.727 -0.0381  0.2689 -0.1016
   40TAL   C19526351   6.697   4.663   4.637  0.5162 -0.1222 -0.5533
   40TAL   C19626352   6.733   4.661   4.491 -0.5295  0.9080 -0.7985
   40TAL   C19726353   6.730   4.532   4.416 -0.7367  0.8069  0.5765
   40TAL   C19826354   6.589   4.490   4.374 -0.7644  0.3538  0.1278
   40TAL   C19926355   6.594   4.348   4.322 -0.3335 -0.5286  0.6179
   40TAL   C20026356   6.470   4.291   4.255 -0.8115  0.0141  0.1328
   41HTM   C20126357   6.393   4.765   4.637 -0.4205  0.0375  0.2868
   41HTM   C20226358   6.364   4.631   4.639 -0.3543  0.0215  0.1466
   41HTM   C20326359   6.230   4.601   4.594 -0.2515 -0.0207 -0.1380
   41HTM   C20426360   6.157   4.711   4.560 -0.2391 -0.0366 -0.2150
   41HTM    S2126361   6.253   4.863   4.580 -0.3572  0.0003  0.0683
   42TAL   C20526362   6.181   4.461   4.607  0.4088  0.3021  0.7146
   42TAL   C20626363   6.270   4.363   4.531  0.5441  0.2330  0.0462
   42TAL   C20726364   6.230   4.214   4.520 -0.4593 -0.7076 -0.4637
   42TAL   C20826365   6.120   4.165   4.426 -0.5217  0.1385 -0.3609
   42TAL   C20926366   5.978   4.222   4.426  0.0811  0.0354 -0.2393
   42TAL   C21026367   5.902   4.241   4.560 -0.1604  0.2942  0.2793
   43HTM   C21126368   6.027   4.721   4.506 -0.2950 -0.0084  0.4121
   43HTM   C21226369   5.960   4.635   4.425 -0.1214  0.0072  0.2520
   43HTM   C21326370   5.829   4.681   4.386  0.0596  0.1252 -0.2191
   43HTM   C21426371   5.796   4.803   4.437  0.0240  0.1997 -0.4183
   43HTM    S2226372   5.929   4.869   4.540 -0.2424  0.1262 -0.0233
   44TAL   C21526373   5.746   4.606   4.289 -0.2293  0.4902 -0.4789
   44TAL   C21626374   5.737   4.453   4.304 -0.2662  0.6597  0.2492
   44TAL   C21726375   5.669   4.396   4.183 -0.2268 -0.5069 -0.7006
   44TAL   C21826376   5.623   4.249   4.197 -0.2431 -0.7519 -0.7268
   44TAL   C21926377   5.554   4.196   4.068 -0.4018  0.2887 -0.3266
   44TAL   C22026378   5.526   4.053   4.056  0.2658 -0.0602 -0.0746
   45HTM   C22126379   5.676   4.885   4.414 -0.3032  0.0395 -0.6362
   45HTM   C22226380   5.631   4.943   4.299 -0.6838  0.2849 -0.3698
   45HTM   C22326381   5.506   5.012   4.313 -0.6800  0.1848  0.1714
   45HTM   C22426382   5.455   5.008   4.439 -0.2963 -0.1372  0.3178
   45HTM    S2326383   5.562   4.915   4.551  0.0930 -0.3405 -0.2210
   46TAL   C22526384   5.455   5.085   4.194  0.1420 -0.1509 -0.5546
   46TAL   C22626385   5.389   4.994   4.095  0.3281 -0.3000 -0.2486
   46TAL   C22726386   5.246   4.967   4.132  0.5591  0.3986 -0.0118
   46TAL   C22826387   5.167   4.851   4.064 -0.2044  0.3051 -0.5700
   46TAL   C22926388   5.039   4.816   4.151 -0.0574 -0.1101  0.0450
   46TAL   C23026389   4.965   4.699   4.092  0.4186 -0.5987 -0.5042
   47HTM   C23126390   5.332   5.079   4.483  0.1018 -0.1204  0.0046
   47HTM   C23226391   5.201   5.046   4.465  0.1471 -0.5403  0.4230
   47HTM   C23326392   5.109   5.129   4.537  0.1106 -0.8457  0.7296
   47HTM   C23426393   5.170   5.226   4.611  0.0377 -0.6586  0.5448
   47HTM    S2426394   5.349   5.220   4.595  0.0090 -0.0776 -0.0351
   48TAL   C23526395   4.959   5.106   4.547 -0.5884  0.1163 -0.3208
   48TAL   C23626396   4.913   4.988   4.467 -0.1763 -0.1386 -0.6294
   48TAL   C23726397   4.756   4.975   4.457 -0.9429 -0.3305 -0.2451
   48TAL   C23826398   4.716   4.862   4.353  0.1057 -0.0343  0.7281
   48TAL   C23926399   4.566   4.855   4.332 -0.4345 -0.5741  0.2309
   48TAL   C24026400   4.535   4.752   4.218  0.4527 -0.4451  0.0584
    1HTM     C126401   6.354   5.936   4.982  0.3213 -0.4910  0.2355
    1HTM     C226402   6.425   5.825   5.019 -0.0618 -0.6692  0.4425
    1HTM     C326403   6.343   5.711   5.049 -0.4406 -0.4380  0.2916
    1HTM     C426404   6.209   5.735   5.035 -0.3467 -0.0830 -0.0309
    1HTM     S126405   6.177   5.904   4.983  0.2324 -0.0133 -0.1697
    2TAL     C526406   6.403   5.572   5.099 -0.7756 -0.3251 -0.0769
    2TAL     C626407   6.545   5.549   5.165 -0.0113  0.0146  0.6707
    2TAL     C726408   6.659   5.598   5.077  0.1897  0.0200 -0.6888
    2TAL     C826409   6.798   5.579   5.147 -0.3663 -0.2337 -0.0576
    2TAL     C926410   6.909   5.658   5.070  0.9088  0.1292 -0.0417
    2TAL    C1026411   7.048   5.657   5.135 -0.4023 -0.2942 -0.3313
    3HTM    C1126412   6.091   5.655   5.063  0.3181  0.2757  0.6374
    3HTM    C1226413   5.964   5.689   5.024  0.2415  0.7737  1.2901
    3HTM    C1326414   5.869   5.581   5.036  0.0551  0.9072  1.0235
    3HTM    C1426415   5.923   5.466   5.084 -0.0099  0.5109  0.1673
    3HTM     S226416   6.099   5.484   5.119  0.1600 -0.0659 -0.3728
    4TAL    C1526417   5.729   5.601   4.975 -0.4313 -0.7397  0.5803
    4TAL    C1626418   5.640   5.716   5.026 -0.5191  0.0793  0.1352
    4TAL    C1726419   5.500   5.718   4.969  0.0396 -0.3827  1.0052
    4TAL    C1826420   5.405   5.824   5.022  0.4108  0.2869 -0.3529
    4TAL    C1926421   5.461   5.962   5.008 -0.2557  0.2603 -0.1739
    4TAL    C2026422   5.361   6.057   5.058  0.0014 -0.0109 -0.2645
    5HTM    C2126423   5.860   5.338   5.117  0.8812  0.0428 -0.6744
    5HTM    C2226424   5.745   5.275   5.079  0.5691  0.4628 -0.4282
    5HTM    C2326425   5.736   5.138   5.122 -0.1903  0.7124  0.2561
    5HTM    C2426426   5.845   5.096   5.192 -0.4570  0.4828  0.5313
    5HTM     S326427   5.967   5.227   5.211  0.2354 -0.0705 -0.0566
    6TAL    C2526428   5.614   5.055   5.084  0.3295  0.1908 -0.4592
    6TAL    C2626429   5.492   5.101   5.000  0.0023  0.1892  0.3425
    6TAL    C2726430   5.396   4.991   4.978 -0.1071 -0.1533  0.2910
    6TAL    C2826431   5.268   5.048   4.906 -0.3951  0.0378 -0.3443
    6TAL    C2926432   5.162   4.937   4.877 -0.4263  0.2236 -0.3542
    6TAL    C3026433   5.200   4.853   4.762 -0.5561  0.0654 -0.0081
    7HTM    C3126434   5.879   4.956   5.241  0.0770  0.1549 -0.4138
    7HTM    C3226435   6.002   4.913   5.281  0.0987  0.0768 -0.5639
    7HTM    C3326436   6.006   4.773   5.316 -0.0184  0.1464 -0.2732
    7HTM    C3426437   5.886   4.710   5.303 -0.1297  0.2782  0.0982
    7HTM     S426438   5.757   4.822   5.245 -0.0947  0.3243  0.1096
    8TAL    C3526439   6.130   4.692   5.366 -0.2093 -0.0127  0.0276
    8TAL    C3626440   6.267   4.761   5.359 -0.4542  0.7285  0.2511
    8TAL    C3726441   6.357   4.685   5.448  1.2301  0.5832 -0.4267
    8TAL    C3826442   6.481   4.764   5.473 -0.0701  0.0568  0.1422
    8TAL    C3926443   6.570   4.691   5.564 -0.7261  0.4420 -0.8616
    8TAL    C4026444   6.719   4.735   5.580  0.2206  0.1355  0.0305
    9HTM    C4126445   5.836   4.569   5.313  0.2734 -0.0360  0.0612
    9HTM    C4226446   5.916   4.460   5.328  0.0553 -0.1462  0.4337
    9HTM    C4326447   5.850   4.335   5.297 -0.0377 -0.0753  0.3448
    9HTM    C4426448   5.720   4.350   5.259  0.1096  0.0890 -0.0964
    9HTM     S526449   5.670   4.523   5.259  0.3792  0.1679 -0.4355
   10TAL    C4526450   5.922   4.201   5.297  0.1894 -0.0250 -0.2841
   10TAL    C4626451   6.071   4.197   5.329 -0.3249 -0.0976  0.5717
   10TAL    C4726452   6.173   4.270   5.249 -0.0367  0.4279 -0.3530
   10TAL    C4826453   6.300   4.282   5.324 -0.3303  0.1289  0.6947
   10TAL    C4926454   6.440   4.283   5.260  0.4785 -0.2157  0.7067
   10TAL    C5026455   6.545   4.321   5.362 -0.6858 -0.3558  0.5483
   11HTM    C5126456   5.617   4.249   5.220 -0.2830 -0.2690  0.3255
   11HTM    C5226457   5.621   4.116   5.247 -0.5167 -0.1936  0.7343
   11HTM    C5326458   5.508   4.043   5.195 -0.5116 -0.1972  0.7286
   11HTM    C5426459   5.419   4.121   5.128 -0.2740 -0.2757  0.3153
   11HTM     S626460   5.470   4.294   5.126 -0.0363 -0.3511 -0.1022
   12TAL    C5526461   5.499   3.896   5.215  0.5883 -0.4923 -0.2366
   12TAL    C5626462   5.609   3.809   5.163  0.5093 -0.2502  0.5994
   12TAL    C5726463   5.566   3.671   5.129 -0.2965 -0.3797 -0.1646
   12TAL    C5826464   5.486   3.666   4.996 -0.0426  0.7856 -0.0070
   12TAL    C5926465   5.449   3.540   4.920  0.0073  0.4662  0.6398
   12TAL    C6026466   5.565   3.450   4.869 -0.1570 -0.2149  0.2696
   13HTM    C6126467   5.284   4.096   5.073  0.0764  0.0770 -0.1183
   13HTM    C6226468   5.191   4.184   5.027  0.0737  0.0856 -0.0973
   13HTM    C6326469   5.071   4.122   4.979  0.0412  0.0989 -0.0331
   13HTM    C6426470   5.072   3.986   4.988  0.0191  0.1004 -0.0055
   13HTM     S726471   5.226   3.926   5.059  0.0376  0.0849 -0.0587
   14TAL    C6526472   4.950   4.196   4.928 -0.1589 -0.6305  0.8422
   14TAL    C6626473   4.965   4.350   4.920 -0.3404 -0.0924 -0.1122
   14TAL    C6726474   4.848   4.422   4.857  0.1079  1.0745 -0.7710
   14TAL    C6826475   4.861   4.573   4.844  0.1679  0.1115  0.1197
   14TAL    C6926476   4.733   4.640   4.827 -0.7244 -0.8264  0.1556
   14TAL    C7026477   4.747   4.790   4.822  0.1886  0.0666 -0.3141
   15HTM    C7126478   4.978   3.883   4.953  0.0291  0.1492 -0.2355
   15HTM    C7226479   5.008   3.759   4.906  0.2267  0.1590 -0.1338
   15HTM    C7326480   4.897   3.667   4.907  0.4032 -0.0534  0.0567
   15HTM    C7426481   4.782   3.721   4.956  0.3399 -0.2250  0.1002
   15HTM     S826482   4.805   3.894   5.004  0.0506 -0.1310 -0.0978
   16TAL    C7526483   4.913   3.518   4.875  0.6761 -0.1774 -0.0550
   16TAL    C7626484   5.055   3.458   4.895 -0.3322 -0.1282 -0.7769
   16TAL    C7726485   5.075   3.306   4.890  0.5133  0.2672  0.2161
   16TAL    C7826486   5.017   3.236   4.763  0.1988  0.1328 -1.1458
   16TAL    C7926487   5.083   3.274   4.626  0.4482  0.3494 -0.0360
   16TAL    C8026488   5.223   3.215   4.618  0.1200 -0.2325 -0.0632
   17HTM    C8126489   4.651   3.666   4.973 -0.0148  0.3483  0.2215
   17HTM    C8226490   4.532   3.731   4.953 -0.1767  0.1471  0.5348
   17HTM    C8326491   4.417   3.652   4.989  0.0403 -0.1310  0.6282
   17HTM    C8426492   4.447   3.528   5.035  0.3676 -0.1418  0.3860
   17HTM     S926493   4.626   3.500   5.037  0.4277  0.2009  0.0186
   18TAL    C8526494   4.274   3.713   4.987 -0.3257  0.6549  0.2821
   18TAL    C8626495   4.208   3.707   4.846  0.6016  0.3411  0.7654
   18TAL    C8726496   4.078   3.786   4.837  0.0118  0.2592 -0.6143
   18TAL    C8826497   4.073   3.942   4.864 -0.5407  0.3590  0.1296
   18TAL    C8926498   4.183   4.019   4.787  0.0927  0.0536  0.1704
   18TAL    C9026499   4.174   4.168   4.815 -0.0128 -0.2332  0.2090
   19HTM    C9126500   4.370   3.419   5.083  0.1196  0.0095 -0.0294
   19HTM    C9226501   4.236   3.400   5.067  0.0477  0.3234  0.1850
   19HTM    C9326502   4.185   3.284   5.137 -0.0989  0.4030  0.2105
   19HTM    C9426503   4.281   3.216   5.206 -0.1387  0.1496  0.0162
   19HTM    S1026504   4.443   3.292   5.189  0.0071 -0.2115 -0.2168
   20TAL    C9526505   4.033   3.253   5.127 -0.0771  0.2037  0.2895
   20TAL    C9626506   3.938   3.369   5.153 -0.0551 -0.6914 -0.1580
   20TAL    C9726507   3.936   3.430   5.298  0.8130  0.0883  0.3068
   20TAL    C9826508   3.911   3.340   5.426 -0.9590  0.5644  0.5595
   20TAL    C9926509   3.789   3.250   5.412  0.3491  0.2106  0.4475
   20TAL   C10026510   3.774   3.137   5.517  0.2186  0.4695 -0.2813
   21HTM   C10126511   4.267   3.101   5.295 -0.1029  0.5612  0.6199
   21HTM   C10226512   4.373   3.033   5.347 -0.0291  0.8659  0.8724
   21HTM   C10326513   4.335   2.927   5.438  0.0489  0.6464  0.6509
   21HTM   C10426514   4.201   2.915   5.455  0.0349  0.1739  0.2297
   21HTM    S1126515   4.110   3.037   5.357 -0.0787 -0.0317  0.0787
   22TAL   C10526516   4.451   2.850   5.502  0.6417 -0.3938 -0.0582
   22TAL   C10626517   4.451   2.701   5.491 -0.1030  0.5170 -0.0215
   22TAL   C10726518   4.485   2.643   5.348  0.4441 -0.2562 -0.0219
   22TAL   C10826519   4.533   2.496   5.354  0.1287  0.3901  0.7475
   22TAL   C10926520   4.557   2.428   5.222  0.5211 -0.6163  0.1075
   22TAL   C11026521   4.660   2.488   5.125  0.2469 -0.7590 -0.3974
   23HTM   C11126522   4.119   2.830   5.540  0.1524  0.4977 -0.0573
   23HTM   C11226523   4.078   2.854   5.667  0.3295  0.6053 -0.0205
   23HTM   C11326524   4.021   2.739   5.733  0.3140  0.6897  0.1140
   23HTM   C11426525   4.020   2.627   5.656  0.1256  0.6466  0.1795
   23HTM    S1226526   4.090   2.658   5.492 -0.0486  0.4947  0.0759
   24TAL   C11526527   3.977   2.760   5.879  0.8415  0.4976 -0.1392
   24TAL   C11626528   3.868   2.863   5.908  0.6923  0.5530  0.0296
   24TAL   C11726529   3.730   2.836   5.848 -0.0890  0.8943 -0.1394
   24TAL   C11826530   3.660   2.713   5.906 -0.0690  0.2275 -0.1160
   24TAL   C11926531   3.637   2.716   6.062 -0.6092 -0.2832  0.2668
   24TAL   C12026532   3.557   2.592   6.116 -0.5415 -0.1490 -0.0956
   25HTM   C12126533   3.945   2.507   5.675 -0.1405  0.2091  0.2468
   25HTM   C12226534   3.857   2.461   5.582 -0.0578 -0.0002  0.2718
   25HTM   C12326535   3.769   2.358   5.632  0.1208 -0.1271  0.3290
   25HTM   C12426536   3.790   2.326   5.763  0.1744 -0.0142  0.3479
   25HTM    S1326537   3.924   2.424   5.833  0.0020  0.2630  0.2946
   26TAL   C12526538   3.655   2.302   5.543  0.3412  0.1442 -0.5952
   26TAL   C12626539   3.534   2.402   5.518  0.1339  0.4864  0.3777
   26TAL   C12726540   3.434   2.378   5.630  0.3257  0.3100  0.1288
   26TAL   C12826541   3.308   2.466   5.614 -0.5706  0.5163  0.3872
   26TAL   C12926542   3.220   2.467   5.738 -0.2865 -0.2612 -0.1362
   26TAL   C13026543   3.122   2.353   5.771  0.8472  0.1956  0.2444
   27HTM   C13126544   3.705   2.246   5.849  0.3512 -0.4702  0.0316
   27HTM   C13226545   3.677   2.273   5.980  0.2416 -0.2401 -0.0384
   27HTM   C13326546   3.590   2.176   6.042 -0.0112  0.0042 -0.0112
   27HTM   C13426547   3.551   2.076   5.958 -0.0944 -0.0396  0.0795
   27HTM    S1426548   3.623   2.096   5.793  0.1418 -0.3957  0.1376
   28TAL   C13526549   3.548   2.198   6.186 -0.2753  0.1868 -0.0550
   28TAL   C13626550   3.424   2.288   6.211 -0.1273  0.0078  0.1976
   28TAL   C13726551   3.287   2.251   6.166  0.0910 -0.3813  0.0038
   28TAL   C13826552   3.235   2.131   6.246 -0.4249 -0.3673  0.3032
   28TAL   C13926553   3.083   2.137   6.269  0.3854 -0.2867  0.1475
   28TAL   C14026554   3.053   2.025   6.375  0.4415 -0.1135  0.1212
   29HTM   C14126555   3.461   1.966   5.980 -0.7402  0.6017  0.4090
   29HTM   C14226556   3.335   1.942   5.934 -1.2465  0.9564  1.5554
   29HTM   C14326557   3.272   1.828   5.995 -0.8106  0.8356  1.7869
   29HTM   C14426558   3.349   1.766   6.089  0.0282  0.3888  0.8168
   29HTM    S1526559   3.509   1.847   6.106  0.3346  0.0835 -0.4742
   30TAL   C14526560   3.136   1.792   5.939 -0.1913 -0.2364  0.0078
   30TAL   C14626561   3.030   1.886   5.991 -0.2157 -0.1440  0.7100
   30TAL   C14726562   2.897   1.869   5.919  0.5124  0.2040  0.0013
   30TAL   C14826563   2.771   1.946   5.966 -0.7015 -0.5609  0.1740
   30TAL   C14926564   2.752   1.948   6.119 -0.3437 -0.2265 -0.7654
   30TAL   C15026565   2.614   2.019   6.141  0.4483 -0.0563  0.6643
   31HTM   C15126566   3.334   1.636   6.151  0.3129 -0.3319 -0.1461
   31HTM   C15226567   3.421   1.532   6.166  0.0827 -0.5595 -0.3669
   31HTM   C15326568   3.364   1.417   6.230 -0.0898 -0.4542 -0.3314
   31HTM   C15426569   3.232   1.432   6.263  0.0090 -0.1462 -0.0832
   31HTM    S1626570   3.171   1.595   6.217  0.3299  0.0361  0.1266
   32TAL   C15526571   3.455   1.305   6.279  1.2377  0.2220 -0.2192
   32TAL   C15626572   3.600   1.297   6.234 -0.1364  0.9230 -0.3016
   32TAL   C15726573   3.682   1.180   6.292  0.0994  0.1246 -0.5831
   32TAL   C15826574   3.648   1.030   6.280 -0.1786 -0.0794  0.3561
   32TAL   C15926575   3.520   0.982   6.345 -0.3970 -0.2891 -0.0156
   32TAL   C16026576   3.492   0.834   6.326 -0.1387 -0.3357 -0.4144
   33HTM   C16126577   3.133   1.336   6.314  0.8410  0.0551  0.7513
   33HTM   C16226578   3.011   1.375   6.361  0.9209  0.2967  0.7608
   33HTM   C16326579   2.927   1.266   6.401  0.4363  0.4172  0.0978
   33HTM   C16426580   2.985   1.143   6.385 -0.0129  0.2674 -0.4175
   33HTM    S1726581   3.151   1.157   6.318  0.1424 -0.0399 -0.1024
   34TAL   C16526582   2.795   1.296   6.463  0.0293 -0.7906 -0.1302
   34TAL   C16626583   2.696   1.367   6.371  0.0621  0.1747  0.6396
   34TAL   C16726584   2.614   1.461   6.456 -0.7534  0.4117  0.7730
   34TAL   C16826585   2.535   1.566   6.379  0.1570  0.0678  0.0636
   34TAL   C16926586   2.474   1.679   6.466  0.1915  0.5774 -0.2323
   34TAL   C17026587   2.405   1.784   6.374  0.3201  0.3376 -0.5595
   35HTM   C17126588   2.933   1.004   6.410  0.0059 -0.0446  0.2069
   35HTM   C17226589   2.806   0.954   6.415 -0.0021 -0.0499 -0.0448
   35HTM   C17326590   2.801   0.811   6.426 -0.0217 -0.0772 -0.4106
   35HTM   C17426591   2.923   0.751   6.429 -0.0284 -0.0925 -0.4376
   35HTM    S1826592   3.056   0.872   6.419 -0.0104 -0.0736  0.0003
   36TAL   C17526593   2.671   0.739   6.448  0.3325  0.9749 -0.1802
   36TAL   C17626594   2.542   0.813   6.411 -0.0919  0.4923  0.0382
   36TAL   C17726595   2.416   0.736   6.449 -0.7755 -0.2744  0.7293
   36TAL   C17826596   2.304   0.815   6.395  0.5266 -0.0680 -0.0125
   36TAL   C17926597   2.179   0.732   6.420 -0.7426 -0.1733  0.1520
   36TAL   C18026598   2.054   0.814   6.403 -0.2219 -0.3115 -0.1627
   37HTM   C18126599   2.957   0.608   6.421  0.1066 -0.2376  0.3663
   37HTM   C18226600   3.081   0.559   6.395  0.0105 -0.3534  0.1249
   37HTM   C18326601   3.085   0.416   6.378 -0.1956 -0.3295 -0.1318
   37HTM   C18426602   2.964   0.356   6.391 -0.2568 -0.1954 -0.0862
   37HTM    S1926603   2.834   0.476   6.427 -0.0572 -0.0881  0.2873
   38TAL   C18526604   3.216   0.341   6.358  0.6584 -0.0267  0.8072
   38TAL   C18626605   3.346   0.424   6.354 -0.9328 -0.1203  0.9240
   38TAL   C18726606   3.467   0.333   6.318 -0.2846  0.7302 -0.5619
   38TAL   C18826607   3.601   0.407   6.315  0.8435  0.0555  0.4932
   38TAL   C18926608   3.656   0.459   6.446  0.3391 -0.4552 -0.2766
   38TAL   C19026609   3.775   0.535   6.407  0.2631 -0.2311  0.0695
   39HTM   C19126610   2.920   0.215   6.364 -0.0321  0.0307  0.3139
   39HTM   C19226611   2.794   0.166   6.383 -0.0583  0.0186  0.1137
   39HTM   C19326612   2.777   0.031   6.338 -0.0671  0.1347 -0.2303
   39HTM   C19426613   2.889  -0.024   6.284 -0.0477  0.2355 -0.2925
   39HTM    S2026614   3.027   0.092   6.287 -0.0166  0.1908  0.0813
   40TAL   C19526615   2.629  -0.026   6.365  0.0962 -0.2422  0.1115
   40TAL   C19626616   2.584  -0.169   6.323  0.1903  0.1518 -0.2200
   40TAL   C19726617   2.608  -0.284   6.429 -0.1117  0.0770  0.2396
   40TAL   C19826618   2.563  -0.416   6.380  0.3894 -0.2027 -0.2674
   40TAL   C19926619   2.523  -0.511   6.497 -0.1386  1.0735  0.3259
   40TAL   C20026620   2.461  -0.639   6.441 -0.2916  0.5492 -0.2640
   41HTM   C20126621   2.899  -0.145   6.198 -0.0105 -0.2540  0.3569
   41HTM   C20226622   2.917  -0.138   6.063  0.5019 -0.1521  0.4296
   41HTM   C20326623   2.940  -0.266   6.000  0.7155 -0.1078  0.4137
   41HTM   C20426624   2.938  -0.370   6.088  0.3660 -0.1757  0.3289
   41HTM    S2126625   2.909  -0.315   6.257 -0.2649 -0.3020  0.2624
   42TAL   C20526626   2.949  -0.271   5.852  0.3306 -0.1308  0.0469
   42TAL   C20626627   3.066  -0.190   5.797 -0.0390  0.7151  0.0029
   42TAL   C20726628   3.153  -0.271   5.702 -0.1544  0.0079 -0.2998
   42TAL   C20826629   3.220  -0.405   5.737 -0.3133 -0.3049 -0.9078
   42TAL   C20926630   3.330  -0.407   5.844  0.2511 -0.3071 -0.6593
   42TAL   C21026631   3.452  -0.315   5.818  0.2824  0.1625  0.6423
   43HTM   C21126632   2.942  -0.514   6.082  0.0295 -0.0470  0.0370
   43HTM   C21226633   2.921  -0.605   6.181 -0.1806 -0.2937 -0.2298
   43HTM   C21326634   2.911  -0.740   6.135 -0.3802 -0.1459 -0.6177
   43HTM   C21426635   2.922  -0.753   5.999 -0.3223  0.2139 -0.6468
   43HTM    S2226636   2.948  -0.593   5.920 -0.0088  0.3955 -0.1829
   44TAL   C21526637   2.866  -0.850   6.233 -0.4578 -0.9339  0.2176
   44TAL   C21626638   2.714  -0.850   6.261  0.4298 -0.0009  0.8870
   44TAL   C21726639   2.680  -0.963   6.352  0.2245 -0.5339  0.7170
   44TAL   C21826640   2.533  -1.000   6.371 -0.0659 -0.1862 -0.4411
   44TAL   C21926641   2.474  -1.048   6.239  0.6794 -0.5990  0.2028
   44TAL   C22026642   2.378  -1.167   6.252 -0.3083  0.0135 -0.1624
   45HTM   C22126643   2.925  -0.866   5.909 -0.3756  0.1012 -0.0212
   45HTM   C22226644   2.884  -0.868   5.778 -0.3542  0.0396 -0.0267
   45HTM   C22326645   2.896  -0.997   5.716  0.1963  0.1397 -0.1335
   45HTM   C22426646   2.946  -1.094   5.799  0.5946  0.2770 -0.2091
   45HTM    S2326647   2.981  -1.028   5.964  0.3030  0.2917 -0.1508
   46TAL   C22526648   2.850  -1.014   5.573  0.4916 -0.0675  0.3878
   46TAL   C22626649   2.721  -0.946   5.519  0.1708  0.1959 -0.0233
   46TAL   C22726650   2.710  -0.924   5.371 -0.2592  0.4981  0.6332
   46TAL   C22826651   2.688  -1.056   5.290 -0.6133  0.0886 -0.2599
   46TAL   C22926652   2.749  -1.058   5.151  0.3148 -0.1980  0.0415
   46TAL   C23026653   2.685  -1.160   5.052 -0.4810  0.1696 -0.2979
   47HTM   C23126654   2.968  -1.234   5.779  0.2765  0.1617 -0.0705
   47HTM   C23226655   3.019  -1.322   5.871 -0.0263  0.1705  0.1063
   47HTM   C23326656   3.026  -1.458   5.823 -0.3760  0.0696  0.3350
   47HTM   C23426657   2.981  -1.473   5.695 -0.3399 -0.0164  0.3326
   47HTM    S2426658   2.926  -1.316   5.625  0.1423  0.0238  0.0389
   48TAL   C23526659   3.107  -1.560   5.894 -0.5429 -0.5744  0.4095
   48TAL   C23626660   3.117  -1.698   5.830 -0.0876 -0.3243 -0.2290
   48TAL   C23726661   3.207  -1.775   5.916  0.2115  0.7659 -0.4809
   48TAL   C23826662   3.209  -1.922   5.903  0.2837  0.0106  0.3447
   48TAL   C23926663   3.306  -1.976   6.005  0.1953 -0.4369  0.3537
   48TAL   C24026664   3.356  -2.114   5.971 -0.1847 -0.5362  0.1104
    1HTM     C126665   1.133   2.815   6.336 -0.4447  0.0272 -0.4214
    1HTM     C226666   1.049   2.913   6.293 -0.8957 -0.3874 -0.4983
    1HTM     C326667   0.945   2.947   6.387 -0.8017 -0.5014 -0.3533
    1HTM     C426668   0.950   2.875   6.502 -0.2792 -0.1735 -0.1662
    1HTM     S126669   1.087   2.757   6.501  0.1381  0.3085 -0.1582
    2TAL     C526670   0.855   3.061   6.350  0.2424  0.8933 -0.3590
    2TAL     C626671   0.920   3.197   6.359  0.5401  0.1905 -0.4360
    2TAL     C726672   0.818   3.305   6.334  0.4385  0.5837 -0.2381
    2TAL     C826673   0.867   3.450   6.350 -0.4453  0.1983 -0.4080
    2TAL     C926674   0.896   3.513   6.211  0.1855 -0.3256  0.0453
    2TAL    C1026675   0.932   3.663   6.225  0.2106 -0.7243  0.2003
    3HTM    C1126676   0.864   2.874   6.614 -0.0851  0.2944  0.1775
    3HTM    C1226677   0.781   2.772   6.650  0.2871  0.0039  0.2186
    3HTM    C1326678   0.685   2.808   6.751  0.3538 -0.3927  0.4268
    3HTM    C1426679   0.694   2.938   6.792  0.0325 -0.4049  0.5439
    3HTM     S226680   0.826   3.025   6.705 -0.3826  0.0876  0.4001
    4TAL    C1526681   0.578   2.711   6.787  0.0265 -1.1500 -0.6628
    4TAL    C1626682   0.606   2.565   6.819 -0.9440 -0.2283 -0.3909
    4TAL    C1726683   0.484   2.482   6.838 -0.0159  0.0818  0.8083
    4TAL    C1826684   0.522   2.336   6.859 -0.4085 -0.2910 -0.5975
    4TAL    C1926685   0.402   2.266   6.926 -0.3726 -0.5722 -0.4514
    4TAL    C2026686   0.429   2.112   6.947 -0.3394  0.5204  0.0731
    5HTM    C2126687   0.627   3.019   6.886 -0.0278 -0.4431 -0.2588
    5HTM    C2226688   0.651   3.149   6.922  0.6468 -0.6868  0.1812
    5HTM    C2326689   0.569   3.195   7.032  0.7827 -0.5866  0.2408
    5HTM    C2426690   0.483   3.100   7.079  0.2118 -0.2668 -0.1532
    5HTM     S326691   0.498   2.945   6.988 -0.5477 -0.0657 -0.6344
    6TAL    C2526692   0.576   3.337   7.081 -0.2889 -0.1394 -0.1688
    6TAL    C2626693   0.484   3.432   7.010 -0.1865  0.5778 -0.6264
    6TAL    C2726694   0.491   3.578   7.058 -0.3819  0.7021  0.5723
    6TAL    C2826695   0.418   3.668   6.954  0.7184  0.0946  0.3148
    6TAL    C2926696   0.408   3.810   7.005  0.6019 -0.3296 -0.5416
    6TAL    C3026697   0.350   3.898   6.894 -0.3614 -0.4578 -0.2807
    7HTM    C3126698   0.390   3.095   7.191 -0.0966 -0.0597  0.3247
    7HTM    C3226699   0.321   3.200   7.243  0.2034  0.0106  0.5891
    7HTM    C3326700   0.222   3.162   7.341  0.1204  0.0496  0.5207
    7HTM    C3426701   0.216   3.028   7.364 -0.2429  0.0091  0.2038
    7HTM     S426702   0.336   2.939   7.263 -0.5105 -0.0822 -0.0343
    8TAL    C3526703   0.142   3.268   7.413 -0.1006 -0.0116 -0.3296
    8TAL    C3626704   0.037   3.336   7.329 -0.5674  0.8447  0.6897
    8TAL    C3726705  -0.021   3.463   7.386 -0.3343 -0.0863 -0.7693
    8TAL    C3826706  -0.134   3.429   7.484 -0.7699  0.4604  0.3286
    8TAL    C3926707  -0.177   3.559   7.550  0.2771  0.7289 -0.3417
    8TAL    C4026708  -0.292   3.530   7.642 -0.0726  0.0060 -0.4008
    9HTM    C4126709   0.130   2.942   7.445 -0.6536  0.3053 -0.3624
    9HTM    C4226710   0.031   2.988   7.526 -0.5441  0.3042 -0.2286
    9HTM    C4326711  -0.052   2.883   7.581 -0.2022  0.2702  0.2270
    9HTM    C4426712  -0.016   2.758   7.542 -0.0506  0.2456  0.4402
    9HTM     S526713   0.126   2.762   7.431 -0.3307  0.2637  0.0796
   10TAL    C4526714  -0.178   2.912   7.661 -0.2546  0.2978 -0.0952
   10TAL    C4626715  -0.219   3.055   7.680  0.0572 -0.7160  0.2692
   10TAL    C4726716  -0.350   3.063   7.753  0.0077  0.3076  0.8289
   10TAL    C4826717  -0.384   3.198   7.822 -0.3700  0.1890 -0.0283
   10TAL    C4926718  -0.512   3.195   7.911 -0.0230  0.2716 -0.4793
   10TAL    C5026719  -0.539   3.310   8.006 -0.0173 -0.3588  0.8145
   11HTM    C5126720  -0.075   2.624   7.568 -0.3414  0.2238 -0.2671
   11HTM    C5226721  -0.083   2.516   7.485 -0.5584  0.4215 -0.5059
   11HTM    C5326722  -0.169   2.411   7.534 -0.5269  0.3566 -0.5903
   11HTM    C5426723  -0.227   2.439   7.654 -0.2863  0.1095 -0.4162
   11HTM     S626724  -0.177   2.601   7.716 -0.0794 -0.0620 -0.1298
   12TAL    C5526725  -0.197   2.286   7.444  0.5097  0.4975  0.0408
   12TAL    C5626726  -0.121   2.161   7.477  0.0645 -0.1776 -0.3547
   12TAL    C5726727  -0.188   2.029   7.426  0.0788  0.6961  0.1182
   12TAL    C5826728  -0.129   1.905   7.495 -0.5532  0.6614  0.1289
   12TAL    C5926729  -0.229   1.789   7.498  0.1223  0.2183 -0.7198
   12TAL    C6026730  -0.163   1.675   7.572 -0.4305 -0.1405 -0.0248
   13HTM    C6126731  -0.315   2.365   7.742  0.0855  0.0685 -0.3121
   13HTM    C6226732  -0.366   2.239   7.735  0.5107 -0.1054 -0.3181
   13HTM    C6326733  -0.447   2.203   7.849  0.7143 -0.4220 -0.2713
   13HTM    C6426734  -0.458   2.302   7.942  0.4452 -0.4895 -0.2291
   13HTM     S726735  -0.365   2.449   7.894 -0.0908 -0.1556 -0.2461
   14TAL    C6526736  -0.489   2.060   7.875 -0.4657  0.4239  0.4824
   14TAL    C6626737  -0.558   1.999   7.757  0.2859  0.5616  0.2031
   14TAL    C6726738  -0.600   1.855   7.789  0.3837 -0.4518 -1.1727
   14TAL    C6826739  -0.660   1.768   7.679  0.1572  0.2296 -0.4169
   14TAL    C6926740  -0.744   1.649   7.717  0.2057  0.0602  0.6854
   14TAL    C7026741  -0.811   1.579   7.585 -0.1478 -0.4833  0.4065
   15HTM    C7126742  -0.531   2.313   8.065  0.2568 -0.0637 -0.0588
   15HTM    C7226743  -0.635   2.239   8.112  0.4625 -0.2176  0.1588
   15HTM    C7326744  -0.691   2.287   8.235  0.5465 -0.2080  0.1926
   15HTM    C7426745  -0.630   2.399   8.283  0.4036 -0.0467  0.0015
   15HTM     S826746  -0.495   2.452   8.175  0.1508  0.1069 -0.2386
   16TAL    C7526747  -0.810   2.210   8.304  0.1111  0.8712  0.3372
   16TAL    C7626748  -0.821   2.057   8.269 -0.4074  0.2982  0.7923
   16TAL    C7726749  -0.709   1.968   8.324  0.0520  0.2635  0.2284
   16TAL    C7826750  -0.693   1.820   8.280 -0.1155 -0.7798 -0.0441
   16TAL    C7926751  -0.808   1.717   8.283  0.5301  0.0780  0.0590
   16TAL    C8026752  -0.787   1.587   8.209  0.0344 -0.0915 -0.5488
   17HTM    C8126753  -0.670   2.483   8.392 -0.0685 -0.1888  0.3093
   17HTM    C8226754  -0.580   2.553   8.467 -0.2556 -0.5060  0.8297
   17HTM    C8326755  -0.636   2.668   8.534 -0.3090 -0.4995  0.7734
   17HTM    C8426756  -0.769   2.686   8.509 -0.1626 -0.1775  0.2097
   17HTM     S926757  -0.834   2.559   8.399  0.0561  0.1449 -0.2981
   18TAL    C8526758  -0.549   2.753   8.623 -0.2093 -0.2018  0.1025
   18TAL    C8626759  -0.482   2.872   8.540  0.3901 -0.4657 -0.0736
   18TAL    C8726760  -0.388   2.972   8.612  0.6193 -0.5470 -0.2806
   18TAL    C8826761  -0.447   3.051   8.732  0.0351  0.2759 -0.2521
   18TAL    C8926762  -0.346   3.145   8.796  0.3662 -0.0404  0.2915
   18TAL    C9026763  -0.413   3.245   8.891  0.5159 -0.0735  0.7897
   19HTM    C9126764  -0.862   2.793   8.541  0.0888  0.1911  0.1405
   19HTM    C9226765  -0.841   2.926   8.564 -0.1340  0.1743  0.4568
   19HTM    C9326766  -0.961   3.000   8.593 -0.2503 -0.1100  0.7038
   19HTM    C9426767  -1.074   2.923   8.592 -0.1152 -0.3101  0.5754
   19HTM    S1026768  -1.036   2.750   8.555  0.1713 -0.1535  0.1295
   20TAL    C9526769  -0.955   3.147   8.620 -0.3950 -0.3765 -0.1957
   20TAL    C9626770  -0.839   3.232   8.555  0.4227  0.1882 -0.2811
   20TAL    C9726771  -0.857   3.387   8.555 -0.6187 -0.2808 -0.1835
   20TAL    C9826772  -0.795   3.445   8.683 -0.0030 -0.4491 -0.3247
   20TAL    C9926773  -0.868   3.573   8.720  0.3442  0.1126 -0.6346
   20TAL   C10026774  -0.854   3.609   8.869 -0.1547  0.5204  0.2607
   21HTM   C10126775  -1.215   2.964   8.592  0.1389  0.0516 -0.3477
   21HTM   C10226776  -1.302   2.929   8.494  0.2511  0.1136 -0.4706
   21HTM   C10326777  -1.439   2.965   8.521  0.1690 -0.2127 -0.4449
   21HTM   C10426778  -1.455   3.028   8.641 -0.0058 -0.5232 -0.3027
   21HTM    S1126779  -1.299   3.047   8.728 -0.0807 -0.4271 -0.1890
   22TAL   C10526780  -1.553   2.933   8.420 -0.4657  0.2186 -0.6999
   22TAL   C10626781  -1.522   2.878   8.280  0.1737 -0.2377 -0.4991
   22TAL   C10726782  -1.442   2.968   8.191  0.1181 -0.2626 -0.7778
   22TAL   C10826783  -1.422   2.926   8.044 -0.2700 -0.1361  0.5582
   22TAL   C10926784  -1.366   2.790   8.012  0.6733  0.3340 -0.2723
   22TAL   C11026785  -1.323   2.777   7.865  0.2659  0.4662 -0.0989
   23HTM   C11126786  -1.576   3.057   8.721  0.1770  0.6753 -0.0804
   23HTM   C11226787  -1.682   2.973   8.735  0.3855  0.3536 -0.4225
   23HTM   C11326788  -1.776   3.014   8.836  0.1352 -0.1384 -0.4516
   23HTM   C11426789  -1.741   3.130   8.899 -0.2639 -0.1918 -0.1309
   23HTM    S1226790  -1.586   3.196   8.836 -0.3549  0.3796  0.2349
   24TAL   C11526791  -1.903   2.928   8.860  0.1314 -0.3210 -0.0446
   24TAL   C11626792  -1.877   2.793   8.920 -0.0044  0.3196 -0.2775
   24TAL   C11726793  -2.004   2.720   8.956  0.7075  0.3502 -0.1566
   24TAL   C11826794  -1.985   2.587   9.032  0.1384  0.2190 -0.1441
   24TAL   C11926795  -1.899   2.475   8.970 -0.7236 -0.2943 -0.6618
   24TAL   C12026796  -1.910   2.350   9.049 -0.3175  0.0883 -0.1075
   25HTM   C12126797  -1.805   3.209   8.999  0.2964  0.1425 -0.4533
   25HTM   C12226798  -1.854   3.160   9.117  0.7596 -0.0976 -0.3591
   25HTM   C12326799  -1.910   3.261   9.203  0.7086 -0.3301 -0.1168
   25HTM   C12426800  -1.904   3.387   9.151  0.2071 -0.2672 -0.0265
   25HTM    S1326801  -1.827   3.388   8.988 -0.2435  0.0932 -0.2419
   26TAL   C12526802  -1.973   3.230   9.339 -0.3693 -0.1103 -0.1276
   26TAL   C12626803  -2.057   3.104   9.354 -0.8650 -0.6419  0.5493
   26TAL   C12726804  -2.182   3.098   9.268 -0.2727 -0.4709  0.1128
   26TAL   C12826805  -2.256   2.969   9.275  0.4891 -0.1477  0.0648
   26TAL   C12926806  -2.181   2.837   9.256 -0.3712  0.3187  0.2422
   26TAL   C13026807  -2.266   2.716   9.267  0.1806  0.5577  0.0603
   27HTM   C13126808  -1.932   3.518   9.200  0.2547  0.2571  0.0420
   27HTM   C13226809  -1.862   3.632   9.174 -0.0062  0.4017 -0.0319
   27HTM   C13326810  -1.929   3.752   9.217 -0.1833  0.2596  0.0909
   27HTM   C13426811  -2.050   3.729   9.274 -0.0579  0.0063  0.2582
   27HTM    S1426812  -2.090   3.553   9.279  0.2968 -0.0727  0.2740
   28TAL   C13526813  -1.861   3.885   9.180  0.2632  0.4990 -0.5174
   28TAL   C13626814  -1.806   3.944   9.305  0.2808 -0.4821 -0.4610
   28TAL   C13726815  -1.803   4.100   9.293 -0.1508  0.4383 -0.8354
   28TAL   C13826816  -1.756   4.186   9.418  0.7392 -0.1418 -0.2874
   28TAL   C13926817  -1.846   4.148   9.540 -0.4098 -0.1285  0.5680
   28TAL   C14026818  -1.818   4.216   9.668  0.3667  0.4780  0.5066
   29HTM   C14126819  -2.141   3.813   9.350 -0.4214 -0.0486 -0.2661
   29HTM   C14226820  -2.186   3.935   9.309 -0.8507 -0.2235 -0.3170
   29HTM   C14326821  -2.290   3.990   9.393 -0.7927 -0.3930 -0.1341
   29HTM   C14426822  -2.324   3.909   9.497 -0.3195 -0.3473  0.0563
   29HTM    S1526823  -2.226   3.758   9.499  0.0933 -0.0847  0.0191
   30TAL   C14526824  -2.349   4.124   9.359 -0.1068 -0.3646 -0.3050
   30TAL   C14626825  -2.257   4.254   9.358 -0.6097  0.0107  0.0846
   30TAL   C14726826  -2.131   4.271   9.274 -0.4353  0.7316  0.7791
   30TAL   C14826827  -2.065   4.408   9.287  0.7341  0.6603  0.1995
   30TAL   C14926828  -1.963   4.445   9.180  0.3846 -0.5777  0.2515
   30TAL   C15026829  -1.905   4.584   9.210  0.6648  0.6020  0.3483
   31HTM   C15126830  -2.401   3.960   9.605  0.2017 -0.0428 -0.0169
   31HTM   C15226831  -2.350   4.051   9.693  0.2229 -0.0861  0.0161
   31HTM   C15326832  -2.450   4.113   9.776  0.2406 -0.1080  0.0533
   31HTM   C15426833  -2.577   4.068   9.752  0.2322 -0.0815  0.0486
   31HTM    S1626834  -2.580   3.944   9.621  0.2014 -0.0258 -0.0036
   32TAL   C15526835  -2.410   4.226   9.874 -0.3689 -0.0610  1.0697
   32TAL   C15626836  -2.321   4.339   9.821  0.2889 -0.1973 -0.3733
   32TAL   C15726837  -2.372   4.405   9.691  0.2101  0.3704 -0.2293
   32TAL   C15826838  -2.285   4.525   9.654 -0.3341  0.0741  0.1637
   32TAL   C15926839  -2.347   4.605   9.537 -0.4651 -0.0246  0.6316
   32TAL   C16026840  -2.276   4.724   9.479  0.0216  0.0048 -0.1925
   33HTM   C16126841  -2.703   4.123   9.804  0.1333 -0.1059  0.0126
   33HTM   C16226842  -2.734   4.256   9.814  0.4749 -0.0477  0.3238
   33HTM   C16326843  -2.864   4.281   9.871  0.5519  0.1557  0.4097
   33HTM   C16426844  -2.932   4.168   9.904  0.2684  0.2521  0.1640
   33HTM    S1726845  -2.837   4.020   9.866 -0.1203  0.0927 -0.1978
   34TAL   C16526846  -2.919   4.424   9.880 -0.1109  0.3370 -0.6125
   34TAL   C16626847  -2.825   4.546   9.837  0.4555  0.6595  0.6412
   34TAL   C16726848  -2.837   4.570   9.684 -0.1884  0.4097 -0.4062
   34TAL   C16826849  -2.743   4.690   9.660 -0.4119  1.0910 -0.3415
   34TAL   C16926850  -2.743   4.739   9.518 -0.3111  0.1227  0.4153
   34TAL   C17026851  -2.640   4.848   9.505  0.5842  0.1406  0.3358
   35HTM   C17126852  -3.066   4.155   9.956  0.0971  0.3328  0.1098
   35HTM   C17226853  -3.172   4.237   9.933 -0.0455  0.1309  0.0465
   35HTM   C17326854  -3.297   4.186   9.985 -0.0265 -0.2258 -0.2512
   35HTM   C17426855  -3.285   4.066  10.047  0.1304 -0.2959 -0.4149
   35HTM    S1826856  -3.115   4.006  10.045  0.2675  0.0858 -0.2042
   36TAL   C17526857  -3.428   4.262   9.973 -0.5665 -0.5423 -0.3681
   36TAL   C17626858  -3.424   4.408   9.913 -0.1607 -0.0211 -0.2610
   36TAL   C17726859  -3.554   4.447   9.850  0.0676 -0.3242 -0.1636
   36TAL   C17826860  -3.543   4.570   9.754 -0.2425 -0.0594 -1.0329
   36TAL   C17926861  -3.682   4.622   9.736 -0.4226 -0.5835  0.0232
   36TAL   C18026862  -3.684   4.742   9.638  0.0361 -0.5058  0.6010
   37HTM   C18126863  -3.380   3.971  10.104  0.0046  0.0031  0.1397
   37HTM   C18226864  -3.359   3.837  10.109 -0.2911 -0.0262  0.5884
   37HTM   C18326865  -3.480   3.760  10.131 -0.4478  0.3134  0.9238
   37HTM   C18426866  -3.592   3.837  10.142 -0.2716  0.6014  0.7306
   37HTM    S1926867  -3.554   4.013  10.126  0.1090  0.4650  0.1056
   38TAL   C18526868  -3.461   3.607  10.145 -0.1140  0.4954  0.5510
   38TAL   C18626869  -3.399   3.555  10.281 -0.1058  0.0813  0.9748
   38TAL   C18726870  -3.495   3.580  10.395 -0.1968  0.0179 -0.1539
   38TAL   C18826871  -3.613   3.484  10.394  0.0931 -0.1576  0.2419
   38TAL   C18926872  -3.734   3.506  10.476 -0.3575 -0.0065 -0.2135
   38TAL   C19026873  -3.858   3.422  10.440 -0.4799 -0.0928 -0.3653
   39HTM   C19126874  -3.729   3.786  10.162 -0.1443  0.0911  0.1941
   39HTM   C19226875  -3.838   3.850  10.212 -0.3066  0.0224 -0.0669
   39HTM   C19326876  -3.959   3.772  10.208 -0.2947  0.0303 -0.5636
   39HTM   C19426877  -3.942   3.648  10.154 -0.1231  0.1049 -0.6814
   39HTM    S2026878  -3.770   3.620  10.104  0.0376  0.1715 -0.1700
   40TAL   C19526879  -4.085   3.830  10.262 -0.1858  0.2020 -0.1640
   40TAL   C19626880  -4.081   3.884  10.408 -0.3884  0.5853 -0.9479
   40TAL   C19726881  -4.032   3.780  10.505 -0.4440  0.0828 -0.0837
   40TAL   C19826882  -3.984   3.833  10.636 -0.4488 -0.6496 -1.0998
   40TAL   C19926883  -3.854   3.911  10.658  0.2028 -0.1107 -0.2759
   40TAL   C20026884  -3.726   3.867  10.592 -0.2331  0.1061 -0.1255
   41HTM   C20126885  -4.037   3.538  10.124  0.1049  0.1129 -0.3606
   41HTM   C20226886  -4.007   3.412  10.082  0.0453  0.1951 -0.6547
   41HTM   C20326887  -4.122   3.334  10.045 -0.0241  0.2010 -0.4496
   41HTM   C20426888  -4.240   3.401  10.059 -0.0179  0.1234  0.0009
   41HTM    S2126889  -4.215   3.569  10.120  0.0772  0.0358  0.2025
   42TAL   C20526890  -4.105   3.192  10.005  0.2527  0.0459  0.4369
   42TAL   C20626891  -3.991   3.166   9.900  0.0927 -0.6442  0.3320
   42TAL   C20726892  -4.000   3.027   9.844 -0.1890 -0.3009 -0.1369
   42TAL   C20826893  -3.864   2.973   9.808  0.8775  0.1903  0.8489
   42TAL   C20926894  -3.881   2.825   9.758 -0.2643  0.2082  0.2027
   42TAL   C21026895  -3.943   2.803   9.620 -0.1026  0.2813  0.7994
   43HTM   C21126896  -4.374   3.368  10.018 -0.3758  0.7168 -0.1028
   43HTM   C21226897  -4.487   3.444  10.030 -0.5143  0.6781 -1.1131
   43HTM   C21326898  -4.605   3.380   9.977 -0.2098  0.2066 -1.2345
   43HTM   C21426899  -4.583   3.256   9.926  0.1609 -0.1143 -0.3167
   43HTM    S2226900  -4.409   3.209   9.940  0.1539  0.1561  0.7806
   44TAL   C21526901  -4.740   3.449   9.996 -0.4410 -0.4554 -0.6428
   44TAL   C21626902  -4.765   3.565  10.091  0.0144  0.5407  0.1671
   44TAL   C21726903  -4.740   3.512  10.229  0.6137  0.1997  0.2508
   44TAL   C21826904  -4.755   3.617  10.344  0.3742 -0.2293  0.1447
   44TAL   C21926905  -4.663   3.741  10.350  0.4990  0.7475 -0.0384
   44TAL   C22026906  -4.515   3.725  10.331  0.0602  0.5767  0.6722
   45HTM   C22126907  -4.669   3.162   9.854  0.0792  0.0411 -0.0347
   45HTM   C22226908  -4.797   3.184   9.812  0.1998 -0.0563 -0.4570
   45HTM   C22326909  -4.856   3.072   9.744  0.4816 -0.1289 -0.5835
   45HTM   C22426910  -4.774   2.964   9.734  0.5762 -0.0868 -0.2576
   45HTM    S2326911  -4.613   2.996   9.811  0.3144  0.0488  0.2382
   46TAL   C22526912  -4.999   3.088   9.705  0.0778 -0.4078  0.2560
   46TAL   C22626913  -5.012   3.100   9.559  0.7134  0.4044  0.0594
   46TAL   C22726914  -5.157   3.051   9.503  0.0751 -0.0560  0.2766
   46TAL   C22826915  -5.204   2.911   9.502  0.2377  0.2540  0.4407
   46TAL   C22926916  -5.312   2.864   9.604 -0.1509 -0.1782 -0.0466
   46TAL   C23026917  -5.289   2.721   9.650  0.1263 -0.3565 -0.2581
   47HTM   C23126918  -4.809   2.831   9.696 -0.0150 -0.3265 -0.0197
   47HTM   C23226919  -4.856   2.786   9.576  0.0708 -0.4944  0.0091
   47HTM   C23326920  -4.861   2.643   9.565  0.1044 -0.5094  0.1963
   47HTM   C23426921  -4.818   2.578   9.677  0.0444 -0.3529  0.3103
   47HTM    S2426922  -4.767   2.694   9.806 -0.0606 -0.1730  0.1891
   48TAL   C23526923  -4.930   2.578   9.451  0.6882  0.3911 -0.2934
   48TAL   C23626924  -4.932   2.427   9.437  0.2025  0.1481 -0.1185
   48TAL   C23726925  -4.802   2.377   9.375 -0.1043  0.5241  0.3739
   48TAL   C23826926  -4.801   2.236   9.313 -0.2870  0.2703  0.0831
   48TAL   C23926927  -4.855   2.121   9.402  0.3337  0.1790  0.0476
   48TAL   C24026928  -4.889   1.986   9.327 -0.9280 -0.2057 -0.6883
    1HTM     C126929   1.965   5.059   5.273  0.0041 -0.1963  0.1521
    1HTM     C226930   1.838   5.008   5.280  0.0024 -0.1886  0.1791
    1HTM     C326931   1.735   5.107   5.265  0.0041 -0.1454  0.4344
    1HTM     C426932   1.782   5.233   5.245  0.0069 -0.1205  0.6026
    1HTM     S126933   1.963   5.237   5.245  0.0078 -0.1497  0.4500
    2TAL     C526934   1.585   5.068   5.255 -0.5194 -0.0594  0.1882
    2TAL     C626935   1.556   4.918   5.273 -0.1649  0.4543 -0.2617
    2TAL     C726936   1.415   4.896   5.317  0.1407  0.2077  0.0296
    2TAL     C826937   1.371   4.759   5.365 -1.2323 -0.9041  0.2997
    2TAL     C926938   1.220   4.770   5.398 -0.8450 -0.8372 -0.2265
    2TAL    C1026939   1.166   4.631   5.436  0.2856  0.6173 -0.5391
    3HTM    C1126940   1.715   5.359   5.223  0.0257  0.2180  0.2354
    3HTM    C1226941   1.770   5.482   5.244  0.0545  0.3138 -0.4055
    3HTM    C1326942   1.674   5.588   5.253  0.0789  0.3850 -0.9511
    3HTM    C1426943   1.544   5.546   5.239  0.0686  0.3435 -0.7267
    3HTM     S226944   1.535   5.368   5.214  0.0272  0.2102  0.1988
    4TAL    C1526945   1.714   5.734   5.276 -0.3516  0.0754  0.2682
    4TAL    C1626946   1.849   5.792   5.228  0.4574 -0.8523  0.4705
    4TAL    C1726947   1.898   5.919   5.300  0.0654 -0.1327  0.1689
    4TAL    C1826948   1.830   6.045   5.267  0.2140  0.4874  0.0477
    4TAL    C1926949   1.839   6.143   5.381 -0.1382  0.2515 -0.1920
    4TAL    C2026950   1.802   6.283   5.353  0.4533  0.3081  0.2794
    5HTM    C2126951   1.422   5.616   5.254 -0.0529  0.1881 -0.3356
    5HTM    C2226952   1.315   5.602   5.171 -0.2843 -0.0010 -0.0083
    5HTM    C2326953   1.206   5.692   5.201 -0.3967 -0.2697  0.3939
    5HTM    C2426954   1.231   5.774   5.307 -0.2511 -0.2860  0.3736
    5HTM     S326955   1.394   5.745   5.378  0.0417  0.0397 -0.1599
    6TAL    C2526956   1.070   5.676   5.133 -0.0622  0.7558 -0.0232
    6TAL    C2626957   0.989   5.547   5.147  0.1917  0.5696 -0.0301
    6TAL    C2726958   0.910   5.538   5.275  0.5901  0.4382 -0.5470
    6TAL    C2826959   0.828   5.410   5.274 -0.3363  0.3077 -0.5517
    6TAL    C2926960   0.762   5.382   5.410 -0.4226  0.2252 -0.1966
    6TAL    C3026961   0.660   5.262   5.430  0.3218 -0.8423  0.5227
    7HTM    C3126962   1.155   5.875   5.379  0.1140  0.1271 -0.0776
    7HTM    C3226963   1.112   5.876   5.508  0.5587  0.4098  0.0706
    7HTM    C3326964   1.049   6.000   5.547  0.6116  0.4623 -0.0093
    7HTM    C3426965   1.044   6.093   5.448  0.2073  0.2191 -0.2186
    7HTM     S426966   1.119   6.031   5.296 -0.2754 -0.0968 -0.3315
    8TAL    C3526967   0.990   6.023   5.678 -0.1047  0.4034 -0.2052
    8TAL    C3626968   0.916   5.905   5.758  0.0544 -0.0879 -0.1081
    8TAL    C3726969   0.791   5.849   5.693  0.1626 -0.5619 -0.2637
    8TAL    C3826970   0.743   5.718   5.758  0.4320  0.5807 -0.3628
    8TAL    C3926971   0.640   5.635   5.685 -0.0736  0.5733  0.0161
    8TAL    C4026972   0.520   5.697   5.625  0.5150  0.1610 -0.3627
    9HTM    C4126973   0.994   6.230   5.448 -0.1686 -0.0318 -0.1910
    9HTM    C4226974   1.071   6.339   5.420 -0.0440 -0.1235 -0.2048
    9HTM    C4326975   0.996   6.461   5.406  0.1120 -0.0110 -0.0658
    9HTM    C4426976   0.862   6.445   5.423  0.1062  0.1662  0.0542
    9HTM     S526977   0.819   6.274   5.459 -0.0982  0.2054  0.0000
   10TAL    C4526978   1.065   6.589   5.354  0.2654 -0.0104 -0.1401
   10TAL    C4626979   1.101   6.693   5.466  0.8818  0.5371 -0.6210
   10TAL    C4726980   1.168   6.824   5.426  0.3648 -0.4700 -0.2023
   10TAL    C4826981   1.117   6.888   5.298 -0.0887 -0.0464 -0.0365
   10TAL    C4926982   0.976   6.936   5.279  0.3131 -0.8351 -0.0047
   10TAL    C5026983   0.968   7.052   5.185 -0.6510  0.0506  0.0164
   11HTM    C5126984   0.747   6.533   5.418 -0.4448 -0.2594 -0.0180
   11HTM    C5226985   0.639   6.529   5.336 -0.6486 -0.2155  0.2453
   11HTM    C5326986   0.553   6.644   5.347 -0.5333 -0.1438  0.3998
   11HTM    C5426987   0.595   6.735   5.439 -0.2415 -0.1332  0.2543
   11HTM     S626988   0.749   6.684   5.518 -0.0886 -0.2134 -0.0924
   12TAL    C5526989   0.437   6.648   5.249 -0.2248 -0.6409  0.2936
   12TAL    C5626990   0.451   6.634   5.098  1.2650  0.1877 -0.3071
   12TAL    C5726991   0.563   6.723   5.041 -0.0393 -0.1860  0.7819
   12TAL    C5826992   0.540   6.870   5.055 -0.0086 -0.2135 -0.4257
   12TAL    C5926993   0.657   6.955   5.010  0.0509  0.3230  0.2130
   12TAL    C6026994   0.643   7.109   5.029 -0.4692  0.6194 -0.4358
   13HTM    C6126995   0.557   6.874   5.456 -0.1260 -0.1837 -0.5407
   13HTM    C6226996   0.646   6.976   5.469  0.1558 -0.4859 -0.1125
   13HTM    C6326997   0.586   7.107   5.467  0.5096 -0.3064  0.4854
   13HTM    C6426998   0.451   7.104   5.451  0.4975  0.1330  0.5132
   13HTM     S726999   0.388   6.936   5.438  0.0348  0.3555 -0.2189
   14TAL    C6527000   0.677   7.228   5.476  0.0692 -0.2670  0.3632
   14TAL    C6627001   0.720   7.293   5.344  0.4966  0.2624 -0.1888
   14TAL    C6727002   0.726   7.443   5.346  0.4784 -0.2858 -0.4231
   14TAL    C6827003   0.751   7.514   5.215 -0.7327  0.0670  0.5433
   14TAL    C6927004   0.889   7.483   5.149 -0.1318  0.0485  0.4255
   14TAL    C7027005   0.926   7.593   5.047  0.1744  0.2759 -0.3044
   15HTM    C7127006   0.349   7.207   5.433 -0.1432 -0.2829 -0.1460
   15HTM    C7227007   0.364   7.332   5.382 -0.1753 -0.4394 -0.5395
   15HTM    C7327008   0.240   7.397   5.347 -0.1987 -0.5341 -0.6313
   15HTM    C7427009   0.130   7.321   5.372 -0.1845 -0.4489 -0.3076
   15HTM     S827010   0.175   7.160   5.442 -0.1400 -0.2421  0.1421
   16TAL    C7527011   0.227   7.539   5.293  0.8708 -0.6152 -0.0580
   16TAL    C7627012   0.332   7.649   5.333  0.3710  0.3263 -0.2245
   16TAL    C7727013   0.309   7.785   5.267 -0.1460 -0.1396 -0.2325
   16TAL    C7827014   0.165   7.841   5.290  0.1963  0.4411 -0.5678
   16TAL    C7927015   0.114   7.946   5.184 -0.3773  0.6219  0.0468
   16TAL    C8027016   0.215   8.061   5.171 -0.2383  0.2142 -0.0001
   17HTM    C8127017  -0.019   7.333   5.361 -0.3174  0.0772 -0.0133
   17HTM    C8227018  -0.112   7.237   5.332 -0.5441  0.2031  0.2911
   17HTM    C8327019  -0.246   7.288   5.321 -0.4873  0.4137  0.5624
   17HTM    C8427020  -0.256   7.422   5.342 -0.2178  0.4482  0.4651
   17HTM     S927021  -0.094   7.496   5.377 -0.0131  0.2157  0.0195
   18TAL    C8527022  -0.355   7.193   5.274 -0.2306 -0.2021 -0.0279
   18TAL    C8627023  -0.372   7.062   5.355  0.4636 -0.8858  0.2338
   18TAL    C8727024  -0.509   6.992   5.336 -0.4492 -0.3948 -0.1050
   18TAL    C8827025  -0.620   7.058   5.410 -0.3359  0.1974 -0.8610
   18TAL    C8927026  -0.751   6.990   5.368  0.4342 -0.0011 -0.2000
   18TAL    C9027027  -0.818   7.071   5.256  0.1681 -0.5526 -0.6745
   19HTM    C9127028  -0.368   7.508   5.337 -0.0734  0.0070 -0.0348
   19HTM    C9227029  -0.364   7.637   5.292 -0.0238 -0.1359 -0.4425
   19HTM    C9327030  -0.491   7.705   5.302  0.0491  0.0057 -0.4766
   19HTM    C9427031  -0.591   7.628   5.355  0.0559  0.2570 -0.0942
   19HTM    S1027032  -0.532   7.462   5.396 -0.0308  0.3345  0.3411
   20TAL    C9527033  -0.503   7.850   5.266  0.7105 -0.5836 -0.2404
   20TAL    C9627034  -0.479   7.910   5.129  0.5723  0.0732  0.3194
   20TAL    C9727035  -0.430   8.056   5.135 -0.0563 -0.1671  0.0307
   20TAL    C9827036  -0.298   8.077   5.216 -0.4082 -0.3609 -0.2276
   20TAL    C9927037  -0.271   8.226   5.226 -0.1095  0.2742 -0.6675
   20TAL   C10027038  -0.138   8.252   5.283 -0.1913  0.3135 -0.4707
   21HTM   C10127039  -0.730   7.663   5.379 -0.0934 -0.1019 -0.3248
   21HTM   C10227040  -0.823   7.565   5.402 -0.1040  0.0312  0.2170
   21HTM   C10327041  -0.958   7.615   5.414  0.0091  0.2038  0.8097
   21HTM   C10427042  -0.968   7.750   5.401  0.1051  0.2020  0.7194
   21HTM    S1127043  -0.807   7.826   5.371  0.0602 -0.0189 -0.1273
   22TAL   C10527044  -1.071   7.515   5.419 -0.3440 -0.1624  0.3965
   22TAL   C10627045  -1.083   7.447   5.559  0.4242 -0.5679 -0.8850
   22TAL   C10727046  -1.197   7.341   5.568 -0.1255 -0.3979  0.7769
   22TAL   C10827047  -1.187   7.206   5.487 -1.1213  0.6722 -0.1141
   22TAL   C10927048  -1.316   7.130   5.503 -0.4542  0.4097 -1.2218
   22TAL   C11027049  -1.298   6.981   5.487 -0.3143 -0.1496  0.4341
   23HTM   C11127050  -1.085   7.828   5.399 -0.0430 -0.2325  0.4033
   23HTM   C11227051  -1.109   7.948   5.458 -0.1824 -0.2661  0.4163
   23HTM   C11327052  -1.243   7.997   5.440 -0.1359 -0.2484  0.1137
   23HTM   C11427053  -1.322   7.913   5.367  0.0391 -0.2009 -0.1302
   23HTM    S1227054  -1.232   7.766   5.315  0.1595 -0.1752  0.0045
   24TAL   C11527055  -1.278   8.133   5.498 -0.0597 -0.1929  0.9733
   24TAL   C11627056  -1.260   8.251   5.401 -0.1588 -0.0419  0.6388
   24TAL   C11727057  -1.305   8.243   5.254 -0.3394 -0.1925 -0.2313
   24TAL   C11827058  -1.261   8.365   5.171 -0.4882  0.4155  0.4748
   24TAL   C11927059  -1.311   8.362   5.028 -0.6120  0.3197 -0.0402
   24TAL   C12027060  -1.271   8.487   4.955 -0.1175  0.6040 -0.0268
   25HTM   C12127061  -1.465   7.912   5.348 -0.1405  0.3579  0.3008
   25HTM   C12227062  -1.555   7.844   5.424 -0.2174  0.9832  0.7768
   25HTM   C12327063  -1.691   7.859   5.379 -0.2015  0.8287  0.6776
   25HTM   C12427064  -1.704   7.938   5.269 -0.1124  0.0860  0.1261
   25HTM    S1327065  -1.545   8.001   5.213 -0.0413 -0.4803 -0.3146
   26TAL   C12527066  -1.793   7.800   5.473 -0.1908 -0.1682  0.3949
   26TAL   C12627067  -1.829   7.656   5.455  0.6107  0.4493  0.9552
   26TAL   C12727068  -1.966   7.615   5.512 -0.2830  0.2883 -0.6463
   26TAL   C12827069  -1.992   7.645   5.661 -0.3486 -0.3730  0.6263
   26TAL   C12927070  -2.130   7.619   5.711 -0.0974  0.4673 -0.2828
   26TAL   C13027071  -2.258   7.664   5.637 -0.3172  0.5537 -0.1062
   27HTM   C13127072  -1.822   7.951   5.178 -0.0416 -0.1184 -0.0529
   27HTM   C13227073  -1.923   7.862   5.160  0.0215 -0.1724 -0.1366
   27HTM   C13327074  -2.013   7.898   5.054  0.0639 -0.1979 -0.1814
   27HTM   C13427075  -1.981   8.015   4.992  0.0330 -0.1627 -0.1323
   27HTM    S1427076  -1.833   8.089   5.063 -0.0525 -0.0950 -0.0243
   28TAL   C13527077  -2.136   7.816   5.023 -0.8057 -0.4380  0.1909
   28TAL   C13627078  -2.129   7.667   4.991 -0.0225  0.2659 -0.4985
   28TAL   C13727079  -2.044   7.624   4.865  0.3540  0.2131  0.2407
   28TAL   C13827080  -2.012   7.476   4.852 -0.2096  0.4738  0.1671
   28TAL   C13927081  -2.139   7.386   4.840 -0.5818 -0.4566 -0.7540
   28TAL   C14027082  -2.092   7.240   4.834  0.3297 -0.0119 -0.6121
   29HTM   C14127083  -2.054   8.088   4.892 -0.5749 -0.3390  0.3031
   29HTM   C14227084  -2.130   8.039   4.790 -1.0519 -0.4320  0.7005
   29HTM   C14327085  -2.196   8.141   4.713 -1.1163 -0.4835  0.6874
   29HTM   C14427086  -2.170   8.268   4.756 -0.6883 -0.4292  0.2796
   29HTM    S1527087  -2.059   8.268   4.899 -0.1667 -0.3090 -0.1224
   30TAL   C14527088  -2.301   8.105   4.608  0.2195  0.5503 -0.8225
   30TAL   C14627089  -2.308   7.964   4.552 -0.6018 -0.0145  0.5029
   30TAL   C14727090  -2.194   7.930   4.456  0.3138  0.7798 -0.0905
   30TAL   C14827091  -2.192   7.782   4.430  0.2989  0.3125  0.0272
   30TAL   C14927092  -2.160   7.678   4.534 -0.6105 -0.2923  0.3323
   30TAL   C15027093  -2.162   7.534   4.480  0.1508  0.2415  0.2471
   31HTM   C15127094  -2.201   8.397   4.697  0.4039  0.2892 -0.1783
   31HTM   C15227095  -2.113   8.501   4.685  0.3965  0.2537 -0.5255
   31HTM   C15327096  -2.166   8.613   4.612  0.3428  0.0606 -0.7887
   31HTM   C15427097  -2.294   8.596   4.569  0.3094 -0.0520 -0.6428
   31HTM    S1627098  -2.359   8.435   4.618  0.3426  0.0786 -0.1572
   32TAL   C15527099  -2.078   8.732   4.592 -0.1214  0.2747 -0.1548
   32TAL   C15627100  -1.945   8.699   4.528  0.9865  0.1079  0.7372
   32TAL   C15727101  -1.955   8.648   4.381 -0.0657 -0.0209  0.0303
   32TAL   C15827102  -1.818   8.636   4.306 -0.2313 -0.0831  0.1556
   32TAL   C15927103  -1.813   8.612   4.158  0.5436  0.1456  0.0837
   32TAL   C16027104  -1.889   8.722   4.083 -0.4019  0.4404  0.1421
   33HTM   C16127105  -2.374   8.690   4.496 -0.1619  0.0778 -0.2857
   33HTM   C16227106  -2.511   8.687   4.494 -0.1562 -0.1111 -0.5395
   33HTM   C16327107  -2.569   8.765   4.388 -0.0691 -0.1287 -0.6008
   33HTM   C16427108  -2.477   8.827   4.309 -0.0081  0.0461 -0.3943
   33HTM    S1727109  -2.308   8.792   4.362 -0.0569  0.2489 -0.1037
   34TAL   C16527110  -2.725   8.775   4.376 -0.0880 -0.4368 -0.2261
   34TAL   C16627111  -2.805   8.675   4.457 -0.2067  0.0311 -0.2680
   34TAL   C16727112  -2.941   8.659   4.386  0.7724 -0.2989 -0.8791
   34TAL   C16827113  -3.025   8.528   4.407 -0.3413 -0.0436  0.0311
   34TAL   C16927114  -3.052   8.479   4.555  0.1173  0.1376  0.0811
   34TAL   C17027115  -3.127   8.573   4.646  0.4961 -0.7168 -0.4753
   35HTM   C17127116  -2.485   8.910   4.191 -0.1202  0.2476  0.1161
   35HTM   C17227117  -2.563   8.908   4.080  0.1149 -0.1936 -0.0465
   35HTM   C17327118  -2.534   9.014   3.987  0.2601 -0.5155 -0.3711
   35HTM   C17427119  -2.434   9.097   4.027  0.1356 -0.3202 -0.4554
   35HTM    S1827120  -2.367   9.046   4.187 -0.1775  0.2897 -0.1298
   36TAL   C17527121  -2.594   8.998   3.848 -0.5845 -0.1389 -0.1497
   36TAL   C17627122  -2.746   8.967   3.848 -0.3959 -0.5413  0.5419
   36TAL   C17727123  -2.822   9.092   3.879 -0.2914  0.4619  0.9097
   36TAL   C17827124  -2.965   9.055   3.867  0.4381 -0.1368  0.4846
   36TAL   C17927125  -3.073   9.148   3.926 -0.1207 -0.3460 -0.4162
   36TAL   C18027126  -3.084   9.181   4.075  0.1228 -0.0078 -0.1553
   37HTM   C18127127  -2.371   9.221   3.981  0.1459 -0.0292 -0.1921
   37HTM   C18227128  -2.268   9.286   4.043  0.4551 -0.2235 -0.5014
   37HTM   C18327129  -2.211   9.393   3.964  0.4418 -0.3503 -0.6847
   37HTM   C18427130  -2.271   9.409   3.843  0.1226 -0.2526 -0.5147
   37HTM    S1927131  -2.405   9.291   3.818 -0.1892  0.0092 -0.1073
   38TAL   C18527132  -2.094   9.475   4.010 -0.1052  0.5347  0.0341
   38TAL   C18627133  -2.121   9.615   4.067 -0.0644  0.6584 -0.1724
   38TAL   C18727134  -2.010   9.714   4.071 -0.2221 -0.4261 -0.3188
   38TAL   C18827135  -1.911   9.722   3.958  0.5948 -0.3243 -0.5398
   38TAL   C18927136  -1.817   9.846   3.954  0.3240  0.2185 -0.1994
   38TAL   C19027137  -1.703   9.852   3.855  0.0242  0.3804  0.2484
   39HTM   C19127138  -2.260   9.500   3.734  0.3181 -0.4731 -0.2809
   39HTM   C19227139  -2.364   9.573   3.684  0.1585 -0.5377 -0.0479
   39HTM   C19327140  -2.322   9.684   3.602 -0.0832 -0.1931  0.2960
   39HTM   C19427141  -2.187   9.696   3.590 -0.1082  0.1341  0.3252
   39HTM    S2027142  -2.101   9.567   3.682  0.1737  0.0317 -0.0826
   40TAL   C19527143  -2.431   9.769   3.531 -0.1452 -0.3583  0.2458
   40TAL   C19627144  -2.519   9.702   3.417  0.1011  0.6742 -0.0754
   40TAL   C19727145  -2.442   9.639   3.299  0.5305  0.2244  0.3592
   40TAL   C19827146  -2.371   9.753   3.217  0.1059 -0.2676  0.1777
   40TAL   C19927147  -2.248   9.711   3.138  0.3637  0.0593  0.0060
   40TAL   C20027148  -2.204   9.823   3.048 -0.5318 -0.2252  0.4620
   41HTM   C20127149  -2.110   9.803   3.535  0.3788 -0.2924  0.4473
   41HTM   C20227150  -2.012   9.806   3.440  0.2463 -0.4267  0.3052
   41HTM   C20327151  -1.958   9.938   3.417 -0.0203 -0.4014 -0.1968
   41HTM   C20427152  -2.014  10.035   3.495 -0.0903 -0.2479 -0.4378
   41HTM    S2127153  -2.141   9.967   3.603  0.1770 -0.1223 -0.0460
   42TAL   C20527154  -1.842   9.961   3.322 -0.7857  0.0999  0.3959
   42TAL   C20627155  -1.707   9.915   3.384  0.4439  0.3191 -0.2265
   42TAL   C20727156  -1.597   9.944   3.286 -0.6925 -0.0188  0.2774
   42TAL   C20827157  -1.470   9.864   3.318  0.0302 -0.1061 -0.6511
   42TAL   C20927158  -1.342   9.934   3.264 -0.4976  0.6531 -0.0865
   42TAL   C21027159  -1.254   9.809   3.244 -0.3422  0.6484  0.1115
   43HTM   C21127160  -1.996  10.178   3.503  0.0448  0.3043 -0.2019
   43HTM   C21227161  -1.914  10.260   3.431 -0.0024  0.3479 -0.2055
   43HTM   C21327162  -1.928  10.400   3.465  0.1500  0.3093  0.0151
   43HTM   C21427163  -2.020  10.423   3.562  0.3136  0.2363  0.1873
   43HTM    S2227164  -2.097  10.271   3.620  0.2872  0.2104  0.0831
   44TAL   C21527165  -1.854  10.509   3.391 -0.1492 -0.1043  0.2744
   44TAL   C21627166  -1.747  10.475   3.278  0.2164  0.4021 -0.2639
   44TAL   C21727167  -1.638  10.377   3.306 -0.7110 -0.2967  0.0554
   44TAL   C21827168  -1.514  10.394   3.222  0.2588  0.5625 -0.4013
   44TAL   C21927169  -1.401  10.299   3.265 -0.0278  0.1245 -0.2899
   44TAL   C22027170  -1.277  10.334   3.182  0.3464  0.0215 -0.1483
   45HTM   C22127171  -2.068  10.544   3.628 -0.4300  0.1749 -0.6975
   45HTM   C22227172  -2.192  10.554   3.684 -0.8087  0.1999 -1.5301
   45HTM   C22327173  -2.229  10.689   3.718 -0.7367  0.1311 -1.1740
   45HTM   C22427174  -2.133  10.782   3.688 -0.3033  0.0536 -0.0696
   45HTM    S2327175  -1.987  10.705   3.614  0.0507  0.0617  0.6112
   46TAL   C22527176  -2.365  10.719   3.778  0.1015 -1.2968  0.3304
   46TAL   C22627177  -2.390  10.686   3.932 -0.2225 -0.0370  0.6667
   46TAL   C22727178  -2.329  10.779   4.041  0.5017 -0.2527  0.2552
   46TAL   C22827179  -2.376  10.924   4.044 -0.3693 -0.3306 -0.0426
   46TAL   C22927180  -2.521  10.941   4.062  0.3369 -0.4223  0.0754
   46TAL   C23027181  -2.580  11.033   3.954 -0.0428 -0.1535 -0.3004
   47HTM   C23127182  -2.125  10.928   3.705  0.5126 -0.1440  0.5060
   47HTM   C23227183  -2.218  11.015   3.752  0.6502 -0.0525  0.6106
   47HTM   C23327184  -2.176  11.153   3.747  0.5965 -0.0517  0.1184
   47HTM   C23427185  -2.051  11.171   3.697  0.4176 -0.1428 -0.3616
   47HTM    S2427186  -1.976  11.013   3.651  0.3028 -0.2371 -0.2281
   48TAL   C23527187  -2.264  11.261   3.809 -0.8630  0.1067  0.2120
   48TAL   C23627188  -2.268  11.256   3.962 -0.2972  0.4666 -0.2155
   48TAL   C23727189  -2.346  11.359   4.045  0.3544  0.7123 -0.0806
   48TAL   C23827190  -2.493  11.393   4.019 -0.2300  0.1808  0.3258
   48TAL   C23927191  -2.519  11.456   3.880  0.0050  0.1296 -0.1316
   48TAL   C24027192  -2.652  11.510   3.842  0.6934 -0.0760  0.1661
    1HTM     C127193   1.709   1.715   5.135 -0.9862 -0.2319  0.3125
    1HTM     C227194   1.768   1.619   5.058 -0.7849 -0.0041  0.1838
    1HTM     C327195   1.856   1.531   5.132 -0.1886  0.4047 -0.0255
    1HTM     C427196   1.863   1.560   5.265  0.0647  0.4885 -0.0565
    1HTM     S127197   1.759   1.701   5.308 -0.4341  0.0544  0.1783
    2TAL     C527198   1.930   1.417   5.062 -0.6943  0.5238 -0.3899
    2TAL     C627199   1.849   1.296   5.046  0.2690  0.1934 -0.2984
    2TAL     C727200   1.939   1.175   5.007  0.2109  0.5266 -0.4525
    2TAL     C827201   1.859   1.039   5.004 -0.0100 -0.1196  0.8333
    2TAL     C927202   1.781   0.981   5.126  0.0479  0.4704 -0.1813
    2TAL    C1027203   1.864   0.966   5.257 -0.1319  0.0529  0.5252
    3HTM    C1127204   1.942   1.497   5.373 -0.4110 -0.2604  0.1172
    3HTM    C1227205   1.981   1.559   5.489 -0.0567 -0.0173 -0.1292
    3HTM    C1327206   2.045   1.470   5.582  0.2491  0.1840 -0.1476
    3HTM    C1427207   2.055   1.341   5.538  0.1283  0.0944  0.0848
    3HTM     S227208   1.984   1.322   5.374 -0.3855 -0.2539  0.3470
    4TAL    C1527209   2.092   1.532   5.719  0.3434 -0.0067  0.4835
    4TAL    C1627210   2.138   1.442   5.831 -0.6839  0.2744  0.1488
    4TAL    C1727211   2.134   1.526   5.952  0.0334  0.2785  0.5947
    4TAL    C1827212   2.145   1.439   6.073  0.5598 -0.4159 -0.4767
    4TAL    C1927213   2.169   1.509   6.210  0.1871 -0.0798  0.5799
    4TAL    C2027214   2.180   1.427   6.338  0.1635  0.1872 -0.4831
    5HTM    C2127215   2.101   1.217   5.583 -0.1178  0.1527 -0.0040
    5HTM    C2227216   2.026   1.111   5.623 -0.1113  0.3213  0.4666
    5HTM    C2327217   2.104   0.998   5.666 -0.1007  0.3839  0.6106
    5HTM    C2427218   2.238   1.018   5.660 -0.0988  0.2628  0.2494
    5HTM     S327219   2.277   1.183   5.598 -0.1108  0.0588 -0.3048
    6TAL    C2527220   2.025   0.876   5.711 -0.3930 -0.1478  0.1475
    6TAL    C2627221   1.923   0.907   5.823  0.4160 -0.2559 -0.0786
    6TAL    C2727222   1.986   0.947   5.961 -0.3933  0.0691  0.1107
    6TAL    C2827223   1.907   1.009   6.078 -0.7651 -0.0326  0.2302
    6TAL    C2927224   1.830   1.139   6.039  0.2915 -0.1157  0.2672
    6TAL    C3027225   1.737   1.175   6.155  0.1944 -0.1161 -0.2594
    7HTM    C3127226   2.348   0.932   5.700 -0.1212 -0.1254 -0.3148
    7HTM    C3227227   2.349   0.813   5.767 -0.0920  0.0615  0.0174
    7HTM    C3327228   2.480   0.755   5.779 -0.0210  0.3269  0.5357
    7HTM    C3427229   2.579   0.829   5.721  0.0041  0.3424  0.5981
    7HTM     S427230   2.513   0.980   5.646 -0.0607  0.0204  0.0034
    8TAL    C3527231   2.504   0.624   5.860 -0.3040  0.6497  0.5861
    8TAL    C3627232   2.460   0.607   6.008 -0.0039 -0.3496  0.0976
    8TAL    C3727233   2.311   0.620   6.049 -0.2007 -1.1560 -0.2884
    8TAL    C3827234   2.218   0.515   5.995  0.4613 -0.1442 -0.5577
    8TAL    C3927235   2.075   0.552   6.025 -0.0843  0.4354  0.1731
    8TAL    C4027236   1.971   0.451   5.969 -0.3460 -0.0046 -0.3799
    9HTM    C4127237   2.718   0.807   5.702  0.2522  0.3997 -0.2280
    9HTM    C4227238   2.808   0.908   5.691  0.4643  0.2189 -0.1528
    9HTM    C4327239   2.944   0.863   5.673  0.4025 -0.0525  0.0567
    9HTM    C4427240   2.956   0.727   5.670  0.1430 -0.0787  0.1418
    9HTM     S527241   2.797   0.646   5.691 -0.0446  0.2399 -0.0383
   10TAL    C4527242   3.048   0.976   5.664 -0.5387  0.7516 -0.2098
   10TAL    C4627243   3.024   1.123   5.695  0.7389 -0.3134 -0.2507
   10TAL    C4727244   2.988   1.157   5.839  0.3459 -0.3060  0.5851
   10TAL    C4827245   2.952   1.302   5.857  0.6345  0.6124  0.3697
   10TAL    C4927246   2.918   1.330   6.003  0.2701 -0.3287 -0.5794
   10TAL    C5027247   2.851   1.468   6.033 -0.2588  0.2388  0.2005
   11HTM    C5127248   3.075   0.648   5.654  0.1769 -0.0009  0.3097
   11HTM    C5227249   3.069   0.516   5.621  0.2689 -0.1149  0.7474
   11HTM    C5327250   3.196   0.460   5.585  0.2694 -0.0862  0.7045
   11HTM    C5427251   3.299   0.549   5.591  0.1780  0.0496  0.2340
   11HTM     S627252   3.243   0.712   5.642  0.0831  0.1526 -0.1952
   12TAL    C5527253   3.198   0.315   5.539  0.0578 -0.5625 -0.1393
   12TAL    C5627254   3.153   0.299   5.390 -0.6013  0.0523 -0.9934
   12TAL    C5727255   3.190   0.166   5.326 -0.1095  0.2951  0.6269
   12TAL    C5827256   3.325   0.099   5.352  0.2361 -1.0018  0.0388
   12TAL    C5927257   3.335  -0.040   5.289 -0.4328  0.4920  0.8732
   12TAL    C6027258   3.462  -0.121   5.318  0.4958  0.4038 -0.1212
   13HTM    C6127259   3.438   0.531   5.560  0.0731 -0.4430  0.1765
   13HTM    C6227260   3.485   0.486   5.440 -0.0557 -0.9960  0.3321
   13HTM    C6327261   3.628   0.471   5.436 -0.0515 -0.9288  0.2213
   13HTM    C6427262   3.690   0.504   5.553  0.0803 -0.3245 -0.0186
   13HTM     S727263   3.572   0.558   5.678  0.2107  0.2106 -0.1245
   14TAL    C6527264   3.677   0.426   5.295  0.5695 -0.1980  0.2685
   14TAL    C6627265   3.824   0.402   5.260 -0.0947  0.0384 -0.2531
   14TAL    C6727266   3.830   0.353   5.119  0.2044  0.0438  1.1241
   14TAL    C6827267   3.770   0.213   5.079 -0.3438 -0.2013  0.3192
   14TAL    C6927268   3.760   0.098   5.183 -0.6810 -0.0875 -0.2288
   14TAL    C7027269   3.732  -0.032   5.131  0.1256  0.2669  0.1059
   15HTM    C7127270   3.829   0.484   5.598 -0.1768  0.3312  0.1284
   15HTM    C7227271   3.889   0.367   5.633 -0.2948  0.2239 -0.0243
   15HTM    C7327272   4.021   0.384   5.688 -0.1652 -0.0026 -0.2644
   15HTM    C7427273   4.061   0.514   5.694  0.0511 -0.0682 -0.2951
   15HTM     S827274   3.935   0.626   5.631  0.1091  0.1529 -0.0206
   16TAL    C7527275   4.092   0.264   5.744  0.0638 -0.7913  0.1271
   16TAL    C7627276   4.159   0.194   5.625 -0.2646  0.2968  0.3725
   16TAL    C7727277   4.240   0.064   5.638  0.2020 -0.8266 -0.3546
   16TAL    C7827278   4.367   0.086   5.726 -0.1348 -0.0516  0.2161
   16TAL    C7927279   4.455  -0.036   5.730  0.2227  0.8204 -0.0638
   16TAL    C8027280   4.583  -0.019   5.809 -0.2980  0.2784 -0.2755
   17HTM    C8127281   4.186   0.567   5.735  0.1209 -0.4965  0.6790
   17HTM    C8227282   4.310   0.516   5.712  0.1001 -0.3721  0.2975
   17HTM    C8327283   4.417   0.610   5.736  0.0598 -0.1219 -0.4659
   17HTM    C8427284   4.373   0.732   5.778  0.0498 -0.0556 -0.6657
   17HTM     S927285   4.193   0.738   5.791  0.0915 -0.3059  0.1000
   18TAL    C8527286   4.564   0.577   5.729  0.4474  0.2175 -0.0622
   18TAL    C8627287   4.610   0.443   5.782  0.5443  0.0058 -0.5141
   18TAL    C8727288   4.620   0.445   5.935 -0.4106  0.0035  0.1265
   18TAL    C8827289   4.662   0.315   5.997 -0.1742 -0.4785 -0.6472
   18TAL    C8927290   4.817   0.298   5.986 -0.1044 -0.0326 -0.4663
   18TAL    C9027291   4.874   0.171   6.043 -0.6737  0.1165  0.2233
   19HTM    C9127292   4.438   0.857   5.816  0.0035 -0.0530 -0.4184
   19HTM    C9227293   4.376   0.970   5.861  0.1113 -0.0032 -0.3943
   19HTM    C9327294   4.466   1.081   5.883  0.2301 -0.1241 -0.2751
   19HTM    C9427295   4.597   1.052   5.856  0.2130 -0.2660 -0.2081
   19HTM    S1027296   4.616   0.882   5.799  0.0439 -0.2579 -0.2912
   20TAL    C9527297   4.416   1.222   5.932  0.3649 -0.1541  0.4239
   20TAL    C9627298   4.274   1.214   5.991 -0.1908 -0.0957 -0.2597
   20TAL    C9727299   4.215   1.341   6.049 -0.2380 -0.4874  0.3816
   20TAL    C9827300   4.088   1.285   6.108  0.2264  0.0368  0.4690
   20TAL    C9927301   4.020   1.358   6.226  0.4762  0.3458  0.1683
   20TAL   C10027302   3.942   1.476   6.171  0.0742 -0.5869  0.2630
   21HTM   C10127303   4.714   1.137   5.857  0.0792  0.1327  0.1989
   21HTM   C10227304   4.738   1.263   5.903  0.3312 -0.0064  0.4520
   21HTM   C10327305   4.877   1.301   5.896  0.3724 -0.1813  0.3006
   21HTM   C10427306   4.958   1.204   5.845  0.1518 -0.1755 -0.0680
   21HTM    S1127307   4.865   1.056   5.802 -0.1274  0.0530 -0.2539
   22TAL   C10527308   4.926   1.436   5.940 -0.0424  0.3545 -0.0058
   22TAL   C10627309   4.833   1.537   5.986  0.0297 -0.2090  0.5251
   22TAL   C10727310   4.916   1.656   6.024  0.4885 -0.0797  0.0950
   22TAL   C10827311   4.843   1.784   5.991  0.2268  0.2881 -0.1644
   22TAL   C10927312   4.943   1.898   5.996  0.0566 -0.2539  0.0852
   22TAL   C11027313   4.881   2.035   5.977  0.3343 -0.3081  0.0031
   23HTM   C11127314   5.105   1.197   5.843  0.0438  0.2200 -0.0716
   23HTM   C11227315   5.182   1.086   5.855  0.0987  0.2988  0.2961
   23HTM   C11327316   5.323   1.111   5.841  0.0985  0.3459  0.3748
   23HTM   C11427317   5.353   1.242   5.817  0.0432  0.3029  0.0670
   23HTM    S1227318   5.204   1.344   5.811 -0.0128  0.1988 -0.3495
   24TAL   C11527319   5.429   1.001   5.843  0.6031  0.2922 -0.5465
   24TAL   C11627320   5.390   0.874   5.920  0.6276  0.6234  1.1372
   24TAL   C11727321   5.502   0.769   5.909 -0.1438  0.0457 -0.3590
   24TAL   C11827322   5.456   0.633   5.940 -0.4259 -0.9956  0.2158
   24TAL   C11927323   5.570   0.540   5.931 -0.3713 -0.0010 -0.2110
   24TAL   C12027324   5.526   0.392   5.910  0.0634 -0.1090 -0.5190
   25HTM   C12127325   5.485   1.304   5.797  0.2856 -0.1343 -0.0808
   25HTM   C12227326   5.611   1.253   5.804  0.4055  0.1019 -0.4904
   25HTM   C12327327   5.715   1.352   5.791  0.1795  0.3186 -0.6614
   25HTM   C12427328   5.668   1.479   5.775 -0.1134  0.2477 -0.3824
   25HTM    S1327329   5.488   1.483   5.774 -0.1260 -0.1011  0.1218
   26TAL   C12527330   5.862   1.308   5.781 -0.0166 -0.0482 -0.3541
   26TAL   C12627331   5.917   1.254   5.911 -0.3219 -0.1302 -0.4106
   26TAL   C12727332   5.963   1.358   6.007  0.0313 -0.3430 -0.4505
   26TAL   C12827333   6.038   1.292   6.118  0.1696  0.0376 -0.5741
   26TAL   C12927334   6.095   1.382   6.229 -0.8341  0.1531  0.1121
   26TAL   C13027335   6.184   1.294   6.319 -0.0684 -0.6428  0.7298
   27HTM   C13127336   5.733   1.609   5.763  0.3474 -0.2268 -0.4096
   27HTM   C13227337   5.853   1.650   5.812  0.2379 -0.1692 -0.1862
   27HTM   C13327338   5.876   1.791   5.796 -0.0007 -0.0729  0.2871
   27HTM   C13427339   5.774   1.857   5.735 -0.0736 -0.0570  0.4248
   27HTM    S1427340   5.639   1.745   5.693  0.1558 -0.1633 -0.0360
   28TAL   C13527341   6.006   1.854   5.841 -0.0723  0.2779 -0.0926
   28TAL   C13627342   6.100   1.769   5.934  0.2955 -0.2680 -0.5080
   28TAL   C13727343   6.239   1.828   5.949  0.0769 -0.0214 -0.4420
   28TAL   C13827344   6.339   1.746   6.031  0.0143  0.6172 -0.0931
   28TAL   C13927345   6.362   1.598   5.997  0.2555  0.3848 -0.6065
   28TAL   C14027346   6.482   1.538   6.065 -0.4737  0.3073  0.3437
   29HTM   C14127347   5.778   1.996   5.688  0.2215 -0.3223  0.3019
   29HTM   C14227348   5.716   2.036   5.574  0.0949 -0.5813  0.2780
   29HTM   C14327349   5.719   2.179   5.553 -0.1264 -0.6058  0.0663
   29HTM   C14427350   5.784   2.247   5.652 -0.1683 -0.3657 -0.0713
   29HTM    S1527351   5.845   2.136   5.780  0.0701 -0.0875  0.0572
   30TAL   C14527352   5.655   2.239   5.425 -0.1043 -0.3115 -0.5233
   30TAL   C14627353   5.513   2.274   5.430 -0.3010 -0.7265 -0.0474
   30TAL   C14727354   5.485   2.374   5.312  0.5511 -0.2063  0.0408
   30TAL   C14827355   5.331   2.400   5.307 -0.7479 -0.3271  0.3602
   30TAL   C14927356   5.283   2.414   5.159 -0.3629 -0.2813 -0.5792
   30TAL   C15027357   5.294   2.293   5.061  0.2450 -0.1233 -0.0519
   31HTM   C15127358   5.831   2.388   5.656 -0.1460  0.0668 -0.7048
   31HTM   C15227359   5.769   2.499   5.608  0.0961  0.2860 -0.5133
   31HTM   C15327360   5.833   2.622   5.647  0.2432  0.0894 -0.1297
   31HTM   C15427361   5.943   2.605   5.726  0.1135 -0.2795 -0.0285
   31HTM    S1627362   5.975   2.430   5.757 -0.2071 -0.4081 -0.4126
   32TAL   C15527363   5.786   2.749   5.580  1.4578 -0.4314  0.2198
   32TAL   C15627364   5.760   2.730   5.431 -0.6139  0.3505  0.3840
   32TAL   C15727365   5.722   2.848   5.339  0.5318  0.7228  0.2809
   32TAL   C15827366   5.722   2.809   5.187  0.4251  0.5911 -0.0214
   32TAL   C15927367   5.608   2.716   5.132 -0.2748 -0.0658 -0.1792
   32TAL   C16027368   5.634   2.653   4.992 -0.2675  0.4272  0.3260
   33HTM   C16127369   6.032   2.707   5.787 -0.0215  0.1403 -0.3099
   33HTM   C16227370   6.157   2.674   5.830 -0.1183  0.1678 -0.0069
   33HTM   C16327371   6.234   2.787   5.876 -0.2527  0.1849  0.1795
   33HTM   C16427372   6.167   2.906   5.867 -0.2587  0.1703  0.0189
   33HTM    S1727373   6.001   2.884   5.800 -0.0936  0.1335 -0.3833
   34TAL   C16527374   6.368   2.766   5.946  0.1004  0.5581 -0.1651
   34TAL   C16627375   6.417   2.629   6.005  0.1394  0.5342  0.1824
   34TAL   C16727376   6.361   2.640   6.146  0.2165 -0.4120  0.0067
   34TAL   C16827377   6.402   2.521   6.235 -0.1844 -0.3918  0.3388
   34TAL   C16927378   6.548   2.522   6.276 -1.5372 -0.2228 -0.5978
   34TAL   C17027379   6.582   2.406   6.367 -0.3312 -0.4213 -0.3717
   35HTM   C17127380   6.214   3.045   5.882 -0.2924 -0.2098  0.3936
   35HTM   C17227381   6.341   3.089   5.902 -0.3624 -0.0441  0.4799
   35HTM   C17327382   6.353   3.232   5.912 -0.4928 -0.0021  0.0432
   35HTM   C17427383   6.234   3.298   5.899 -0.5221 -0.1357 -0.3761
   35HTM    S1827384   6.097   3.183   5.873 -0.3861 -0.3264 -0.2514
   36TAL   C17527385   6.491   3.295   5.930 -0.2582  0.0750 -0.2826
   36TAL   C17627386   6.617   3.215   5.970  0.0199 -0.2931 -0.2054
   36TAL   C17727387   6.743   3.295   5.988 -0.1535 -0.4500  0.2559
   36TAL   C17827388   6.834   3.296   5.874  0.5226  0.0800  0.1480
   36TAL   C17927389   6.939   3.401   5.890 -0.2928 -0.2075 -0.5149
   36TAL   C18027390   7.037   3.417   5.773 -0.4397 -0.2449 -0.4289
   37HTM   C18127391   6.219   3.446   5.887 -0.2172 -0.0175  0.4455
   37HTM   C18227392   6.301   3.554   5.876 -0.3204  0.0505  0.3462
   37HTM   C18327393   6.231   3.679   5.857 -0.4435 -0.0169  0.3591
   37HTM   C18427394   6.095   3.665   5.854 -0.4343 -0.1365  0.4680
   37HTM    S1927395   6.045   3.493   5.874 -0.2682 -0.1735  0.5633
   38TAL   C18527396   6.308   3.807   5.852  0.6824  0.3423  0.1615
   38TAL   C18627397   6.365   3.842   5.720 -0.3581  0.0597 -0.4110
   38TAL   C18727398   6.431   3.979   5.709  0.6871 -0.3413  0.2196
   38TAL   C18827399   6.472   4.028   5.561  0.2356 -0.0642  0.0342
   38TAL   C18927400   6.585   3.963   5.486  0.6034  0.1381  0.3585
   38TAL   C19027401   6.720   4.010   5.547  0.2018  0.2094 -0.0381
   39HTM   C19127402   6.006   3.776   5.825  0.0973 -0.1473 -0.0895
   39HTM   C19227403   6.024   3.885   5.745  0.0288 -0.3049 -0.3226
   39HTM   C19327404   5.918   3.981   5.754 -0.0906 -0.4110 -0.6204
   39HTM   C19427405   5.818   3.946   5.839 -0.1132 -0.3348 -0.6147
   39HTM    S2027406   5.851   3.786   5.917  0.0155 -0.1210 -0.2294
   40TAL   C19527407   5.917   4.117   5.686 -0.3090 -0.5532 -0.0028
   40TAL   C19627408   6.043   4.208   5.699  0.8013  0.2702  0.4445
   40TAL   C19727409   6.025   4.354   5.656  0.0916  0.4604  0.3959
   40TAL   C19827410   6.144   4.435   5.687  0.0168  0.1575 -0.3850
   40TAL   C19927411   6.087   4.574   5.735 -0.0292 -0.1816  0.1466
   40TAL   C20027412   6.189   4.678   5.760 -0.0711  0.3028 -0.4937
   41HTM   C20127413   5.700   4.014   5.879 -0.3652  0.0575 -0.0430
   41HTM   C20227414   5.582   3.955   5.914 -0.4644  0.2244 -0.1001
   41HTM   C20327415   5.483   4.048   5.961 -0.3383  0.3583 -0.0992
   41HTM   C20427416   5.525   4.178   5.962 -0.1431  0.2943 -0.0419
   41HTM    S2127417   5.695   4.192   5.903 -0.1029  0.0573  0.0160
   42TAL   C20527418   5.347   4.014   6.023 -0.0896 -0.0662 -0.2514
   42TAL   C20627419   5.280   3.884   5.996 -0.0389  0.2071  0.3403
   42TAL   C20727420   5.151   3.871   6.075  0.0696  0.7488 -0.5726
   42TAL   C20827421   5.062   3.753   6.043  0.5365  0.0265  0.0316
   42TAL   C20927422   4.960   3.731   6.152 -0.4705  0.4773  0.0931
   42TAL   C21027423   4.855   3.627   6.130  0.7975 -0.0511 -0.3425
   43HTM   C21127424   5.460   4.292   6.018  0.4353  0.3534  0.2378
   43HTM   C21227425   5.484   4.370   6.128  0.4468  0.4797  0.1452
   43HTM   C21327426   5.393   4.482   6.140  0.1769  0.2489  0.2573
   43HTM   C21427427   5.301   4.488   6.039 -0.0405 -0.0531  0.4355
   43HTM    S2227428   5.321   4.353   5.921  0.0799 -0.0701  0.4758
   44TAL   C21527429   5.399   4.588   6.243 -0.0379 -0.5039  0.0992
   44TAL   C21627430   5.532   4.612   6.318  0.1070 -0.4998 -0.7528
   44TAL   C21727431   5.525   4.723   6.427 -0.3384 -0.2163 -0.3351
   44TAL   C21827432   5.648   4.738   6.522  0.5241  0.3699  1.0319
   44TAL   C21927433   5.794   4.758   6.470 -0.3185 -0.0530 -0.1634
   44TAL   C22027434   5.810   4.861   6.356  0.0633  0.3612 -0.2878
   45HTM   C22127435   5.195   4.583   6.008 -0.2867  0.3310  0.1777
   45HTM   C22227436   5.198   4.698   5.935 -0.4818  0.3762  0.2391
   45HTM   C22327437   5.070   4.760   5.919 -0.5972  0.1326  0.2182
   45HTM   C22427438   4.968   4.692   5.980 -0.4903 -0.0984  0.1408
   45HTM    S2327439   5.028   4.543   6.063 -0.2332 -0.0254  0.0877
   46TAL   C22527440   5.047   4.895   5.851  1.0510  0.0791 -0.0243
   46TAL   C22627441   5.140   5.006   5.898  0.1116 -0.0883  0.0570
   46TAL   C22727442   5.091   5.145   5.856  0.2210 -0.4975  0.2695
   46TAL   C22827443   5.189   5.260   5.874 -0.5814 -0.3965  0.0927
   46TAL   C22927444   5.229   5.295   6.022  0.2455  0.2748 -0.0230
   46TAL   C23027445   5.348   5.388   6.030  0.5947  0.0234 -0.4107
   47HTM   C23127446   4.827   4.721   5.985  0.0135  0.4518 -0.2820
   47HTM   C23227447   4.745   4.769   5.886 -0.1690  0.8018  0.0350
   47HTM   C23327448   4.609   4.790   5.929 -0.1025  0.6084  0.3493
   47HTM   C23427449   4.587   4.758   6.059  0.1306  0.1112  0.2717
   47HTM    S2427450   4.737   4.699   6.140  0.2858 -0.1537 -0.2076
   48TAL   C23527451   4.504   4.843   5.831  0.3300  0.3300  0.2738
   48TAL   C23627452   4.362   4.867   5.879 -0.2225  0.1686 -0.0808
   48TAL   C23727453   4.289   4.741   5.922  0.2739 -0.1016  0.3461
   48TAL   C23827454   4.142   4.763   5.975  0.3674  0.2910  0.0260
   48TAL   C23927455   4.079   4.636   6.035  0.7808 -0.3669 -0.0353
   48TAL   C24027456   3.965   4.673   6.120 -0.4263 -0.2442  0.2072
    1HTM     C127457   0.169   6.933   1.740 -0.4772 -0.2132 -0.4547
    1HTM     C227458   0.230   6.843   1.821 -0.7177 -0.1452 -0.1938
    1HTM     C327459   0.365   6.812   1.781 -0.5225 -0.0162  0.3597
    1HTM     C427460   0.406   6.879   1.670 -0.1331  0.0144  0.5208
    1HTM     S127461   0.277   6.987   1.606  0.0184 -0.1190 -0.0183
    2TAL     C527462   0.429   6.702   1.861  0.1206  0.6959 -0.1392
    2TAL     C627463   0.481   6.733   1.997  0.7198  0.3056  0.1338
    2TAL     C727464   0.583   6.849   2.003 -0.3826  0.2419 -0.1379
    2TAL     C827465   0.642   6.851   2.145  0.0172  0.1805  0.0864
    2TAL     C927466   0.720   6.729   2.204  0.4441  0.1831  0.2806
    2TAL    C1027467   0.764   6.736   2.349 -0.2087 -0.3351  0.1209
    3HTM    C1127468   0.534   6.879   1.600 -0.0402 -0.2661 -0.2689
    3HTM    C1227469   0.562   6.957   1.491 -0.0989 -0.1023 -0.1676
    3HTM    C1327470   0.690   6.929   1.432  0.0057  0.2058 -0.0887
    3HTM    C1427471   0.760   6.830   1.495  0.1441  0.2767 -0.1296
    3HTM     S227472   0.668   6.764   1.635  0.1531 -0.0423 -0.2722
    4TAL    C1527473   0.734   7.003   1.312 -0.6297 -0.3453  0.0378
    4TAL    C1627474   0.654   7.010   1.178 -0.5731 -0.3521  0.4383
    4TAL    C1727475   0.622   6.881   1.111 -0.0223 -0.1129  0.1396
    4TAL    C1827476   0.639   6.883   0.961  0.2545  0.6964  0.2545
    4TAL    C1927477   0.614   6.747   0.906  0.5906  0.3553 -0.0415
    4TAL    C2027478   0.661   6.747   0.756  0.3720  0.1038  0.3345
    5HTM    C2127479   0.893   6.785   1.485 -0.1861 -0.0431 -0.3731
    5HTM    C2227480   0.942   6.659   1.505 -0.1400 -0.0184 -0.3298
    5HTM    C2327481   1.086   6.654   1.511 -0.1445  0.0618 -0.1559
    5HTM    C2427482   1.147   6.775   1.496 -0.1941  0.0980 -0.0664
    5HTM     S327483   1.026   6.907   1.472 -0.2394  0.0331 -0.1960
    6TAL    C2527484   1.141   6.513   1.545 -0.0174 -0.2868  0.2601
    6TAL    C2627485   1.169   6.486   1.692 -0.5100  0.2565  0.3664
    6TAL    C2727486   1.211   6.343   1.729 -0.9951 -0.2542  0.7762
    6TAL    C2827487   1.092   6.249   1.734  0.1820 -0.1866  0.6930
    6TAL    C2927488   1.114   6.126   1.813  0.5528 -0.4141  0.1731
    6TAL    C3027489   0.990   6.046   1.790 -0.6280  0.1854 -0.2637
    7HTM    C3127490   1.283   6.813   1.489 -0.3298  0.0287  0.2207
    7HTM    C3227491   1.394   6.747   1.533 -0.4045 -0.2744 -0.0506
    7HTM    C3327492   1.517   6.820   1.515 -0.2576 -0.5674 -0.2549
    7HTM    C3427493   1.500   6.942   1.458 -0.0710 -0.4871 -0.1393
    7HTM     S427494   1.326   6.975   1.422 -0.0663 -0.0325  0.2395
    8TAL    C3527495   1.650   6.757   1.545  0.5356  0.5220  0.4606
    8TAL    C3627496   1.670   6.610   1.509 -0.0261 -0.3495  0.5588
    8TAL    C3727497   1.788   6.541   1.575  0.1869  0.1583  0.2004
    8TAL    C3827498   1.821   6.412   1.509  0.3581  0.1761 -0.4046
    8TAL    C3927499   1.965   6.369   1.542  0.0900 -0.0692 -0.6492
    8TAL    C4027500   1.997   6.233   1.485  0.0940 -0.5226 -0.0404
    9HTM    C4127501   1.595   7.059   1.458  0.2346 -0.6700  0.1250
    9HTM    C4227502   1.572   7.184   1.509 -0.2164 -0.7827  0.2060
    9HTM    C4327503   1.666   7.283   1.463 -0.5357 -0.4265  0.3212
    9HTM    C4427504   1.759   7.235   1.377 -0.3282 -0.0424  0.3280
    9HTM     S527505   1.737   7.058   1.347  0.2914 -0.1007  0.1884
   10TAL    C4527506   1.651   7.433   1.498 -0.2215  0.1431 -0.9579
   10TAL    C4627507   1.634   7.475   1.647 -0.7503  0.1066 -0.2508
   10TAL    C4727508   1.764   7.497   1.723 -0.3523 -0.6100 -0.0139
   10TAL    C4827509   1.839   7.374   1.758  0.3224 -0.2346  0.4130
   10TAL    C4927510   1.959   7.400   1.844  0.2852 -0.3201  0.4731
   10TAL    C5027511   2.052   7.279   1.875 -0.1067 -0.5651  0.1612
   11HTM    C5127512   1.868   7.303   1.300 -0.1936 -0.1697  0.6333
   11HTM    C5227513   1.891   7.286   1.167 -0.5400 -0.6640  0.6326
   11HTM    C5327514   1.989   7.376   1.113 -0.5867 -0.9441  0.0666
   11HTM    C5427515   2.041   7.462   1.206 -0.2758 -0.6633 -0.3644
   11HTM     S627516   1.969   7.435   1.369  0.1029 -0.0182 -0.0866
   12TAL    C5527517   2.016   7.385   0.967  0.3634 -0.0875  0.3224
   12TAL    C5627518   1.925   7.489   0.896  0.5195  0.8242 -0.3461
   12TAL    C5727519   1.993   7.617   0.856  0.8145  0.5376 -0.4278
   12TAL    C5827520   2.111   7.604   0.759  0.5238  0.5430  0.1580
   12TAL    C5927521   2.146   7.743   0.697 -0.3532 -0.1045  0.7518
   12TAL    C6027522   2.280   7.746   0.611  0.2366  0.6872 -0.0357
   13HTM    C6127523   2.137   7.572   1.215  0.0774 -0.4826  0.1518
   13HTM    C6227524   2.261   7.559   1.160  0.0865 -0.5248  0.1826
   13HTM    C6327525   2.354   7.660   1.202  0.0718 -0.4756  0.0989
   13HTM    C6427526   2.301   7.750   1.290  0.0511 -0.3961  0.0044
   13HTM     S727527   2.128   7.714   1.325  0.0490 -0.3765  0.0138
   14TAL    C6527528   2.503   7.656   1.164  0.2765 -0.5034 -0.0444
   14TAL    C6627529   2.592   7.555   1.235 -0.3577  0.2067  0.0537
   14TAL    C6727530   2.738   7.567   1.186 -0.2631 -0.3629 -0.1561
   14TAL    C6827531   2.834   7.459   1.238  0.2025 -0.3932  0.4996
   14TAL    C6927532   2.827   7.340   1.151  0.4516 -0.7209  0.1126
   14TAL    C7027533   2.949   7.253   1.155 -0.0601 -0.2495 -0.0368
   15HTM    C7127534   2.366   7.849   1.372  0.0065  0.0184  0.1012
   15HTM    C7227535   2.457   7.809   1.466  0.1978  0.0818 -0.0571
   15HTM    C7327536   2.532   7.918   1.523  0.3798  0.1109 -0.3521
   15HTM    C7427537   2.499   8.040   1.473  0.3274  0.0693 -0.4186
   15HTM     S827538   2.368   8.027   1.349  0.0418 -0.0096 -0.1116
   16TAL    C7527539   2.629   7.885   1.633 -0.2028  0.6760  0.2328
   16TAL    C7627540   2.640   7.740   1.678  0.0140 -0.2203  0.1599
   16TAL    C7727541   2.714   7.709   1.807  0.8045  0.5441  0.1332
   16TAL    C7827542   2.719   7.569   1.863  0.0549 -0.0437  0.2283
   16TAL    C7927543   2.777   7.457   1.768  0.7776 -0.1587  0.0934
   16TAL    C8027544   2.780   7.332   1.845  0.0830  1.4516 -0.0738
   17HTM    C8127545   2.541   8.178   1.500  0.2795  0.0130  0.1311
   17HTM    C8227546   2.658   8.239   1.466  0.2196  0.2017  0.2589
   17HTM    C8327547   2.665   8.377   1.507  0.0463  0.1497  0.4685
   17HTM    C8427548   2.554   8.421   1.572 -0.0257 -0.0775  0.5005
   17HTM     S927549   2.430   8.291   1.587  0.1208 -0.2456  0.2666
   18TAL    C8527550   2.786   8.460   1.466 -1.0527 -0.0961  0.4287
   18TAL    C8627551   2.926   8.432   1.526  0.3569 -0.3366  0.0123
   18TAL    C8727552   2.934   8.383   1.671  0.2264 -1.0147 -0.3913
   18TAL    C8827553   3.052   8.445   1.739 -0.4977  0.4110  0.2154
   18TAL    C8927554   3.069   8.403   1.889 -0.0725  0.5032 -0.1060
   18TAL    C9027555   3.186   8.471   1.945 -0.1294  0.4995  0.1822
   19HTM    C9127556   2.521   8.557   1.612  0.0204  0.2993 -0.0696
   19HTM    C9227557   2.397   8.615   1.616  0.0613  0.3886 -0.0904
   19HTM    C9327558   2.400   8.758   1.633  0.1611  0.3839 -0.0632
   19HTM    C9427559   2.526   8.809   1.643  0.1965  0.2904 -0.0219
   19HTM    S1027560   2.651   8.680   1.631  0.1057  0.2007 -0.0139
   20TAL    C9527561   2.273   8.846   1.654  0.0506  0.4993  0.0337
   20TAL    C9627562   2.147   8.777   1.694  0.1368 -0.1399 -0.1482
   20TAL    C9727563   2.033   8.877   1.717 -0.2529  0.5175 -0.1845
   20TAL    C9827564   1.898   8.803   1.736 -0.4231  0.0741  0.0030
   20TAL    C9927565   1.785   8.902   1.734 -0.4674  0.1253 -0.1543
   20TAL   C10027566   1.658   8.822   1.759 -0.0672 -0.0929 -0.0140
   21HTM   C10127567   2.575   8.949   1.649  0.3533  0.1266 -0.1395
   21HTM   C10227568   2.706   8.986   1.659  0.2923  0.5007 -0.7082
   21HTM   C10327569   2.726   9.128   1.670 -0.0533  0.5722 -1.0077
   21HTM   C10427570   2.610   9.199   1.668 -0.2557  0.2524 -0.6674
   21HTM    S1127571   2.466   9.092   1.653 -0.0236 -0.1666  0.0633
   22TAL   C10527572   2.864   9.190   1.669 -0.5182 -0.0299 -0.8627
   22TAL   C10627573   2.962   9.137   1.566 -0.3755 -0.0516  0.5415
   22TAL   C10727574   3.109   9.174   1.590 -0.1461 -0.3280 -0.5671
   22TAL   C10827575   3.196   9.102   1.492  0.2571 -0.2330 -0.5581
   22TAL   C10927576   3.343   9.151   1.499  0.0622  0.4318  0.0741
   22TAL   C11027577   3.455   9.090   1.410 -0.2179 -0.0186 -0.0771
   23HTM   C11127578   2.581   9.341   1.678 -0.2441  0.1628 -0.2370
   23HTM   C11227579   2.463   9.402   1.709 -0.1570  0.3326 -0.2391
   23HTM   C11327580   2.460   9.541   1.674  0.0905  0.3685 -0.1217
   23HTM   C11427581   2.575   9.587   1.618  0.1924  0.2260 -0.0301
   23HTM    S1227582   2.698   9.456   1.603 -0.0183  0.0339 -0.0853
   24TAL   C11527583   2.334   9.621   1.695  0.2086 -0.3118 -0.1529
   24TAL   C11627584   2.214   9.569   1.621 -0.5799  0.4021 -0.3509
   24TAL   C11727585   2.104   9.666   1.640 -0.1870 -0.4771  0.1883
   24TAL   C11827586   1.975   9.641   1.566 -0.3132 -0.3977 -0.1315
   24TAL   C11927587   1.868   9.751   1.583 -0.6121  0.6176  0.2087
   24TAL   C12027588   1.871   9.877   1.497  0.3329 -0.2301  1.0013
   25HTM   C12127589   2.623   9.712   1.573  0.1590  0.0143 -0.0475
   25HTM   C12227590   2.577   9.795   1.475 -0.1174 -0.0166  0.0575
   25HTM   C12327591   2.661   9.909   1.450 -0.3829  0.1774  0.0466
   25HTM   C12427592   2.772   9.914   1.529 -0.3090  0.3562 -0.0668
   25HTM    S1327593   2.779   9.773   1.642  0.1049  0.2929 -0.1694
   26TAL   C12527594   2.620  10.024   1.357 -0.0548 -0.7565 -0.2496
   26TAL   C12627595   2.484  10.021   1.284  0.2816 -0.4441  0.3749
   26TAL   C12727596   2.452  10.136   1.183  0.5815  0.0857 -0.0409
   26TAL   C12827597   2.436  10.292   1.226 -0.0706  0.4747 -0.4216
   26TAL   C12927598   2.381  10.322   1.367 -0.6270  0.5915 -0.1091
   26TAL   C13027599   2.326  10.458   1.395  0.1881 -0.9312  0.0130
   27HTM   C13127600   2.892  10.005   1.531  0.1473 -0.3176  0.3295
   27HTM   C13227601   2.951  10.076   1.631  0.3721 -0.5255  0.3449
   27HTM   C13327602   3.068  10.148   1.590  0.2999 -0.4680  0.2390
   27HTM   C13427603   3.099  10.132   1.459  0.0202 -0.2161  0.1430
   27HTM    S1427604   2.981  10.025   1.375 -0.1752 -0.0307  0.1790
   28TAL   C13527605   3.142  10.246   1.683  0.6216  0.4706 -0.0331
   28TAL   C13627606   3.045  10.343   1.749  0.0349  0.1356 -0.0060
   28TAL   C13727607   3.125  10.432   1.838 -0.4099  0.0067  0.5325
   28TAL   C13827608   3.038  10.548   1.886  0.3496  0.0867 -0.3955
   28TAL   C13927609   3.114  10.625   1.990  0.6202  0.0542  0.0599
   28TAL   C14027610   3.035  10.739   2.047  1.2768 -0.0080 -0.0273
   29HTM   C14127611   3.208  10.186   1.382 -0.0678 -0.1604 -0.0379
   29HTM   C14227612   3.192  10.271   1.276 -0.1017 -0.0020  0.0938
   29HTM   C14327613   3.316  10.319   1.221 -0.1225  0.1728  0.1999
   29HTM   C14427614   3.427  10.271   1.285 -0.1042  0.1479  0.1493
   29HTM    S1527615   3.383  10.161   1.420 -0.0590 -0.1005 -0.0380
   30TAL   C14527616   3.337  10.395   1.085  0.0630  0.4052 -0.0452
   30TAL   C14627617   3.260  10.527   1.076  0.3583 -0.0314 -0.2034
   30TAL   C14727618   3.307  10.666   1.135  0.0591  0.5919 -0.4161
   30TAL   C14827619   3.438  10.706   1.075  1.0695 -0.0349 -0.0985
   30TAL   C14927620   3.519  10.798   1.165  0.2121  0.3263 -0.4227
   30TAL   C15027621   3.657  10.831   1.120  0.1120  0.0659 -0.4418
   31HTM   C15127622   3.567  10.308   1.268  0.1256 -0.1986 -0.3216
   31HTM   C15227623   3.678  10.234   1.237  0.2803 -0.0499 -0.1256
   31HTM   C15327624   3.799  10.312   1.228  0.1820  0.1225  0.0284
   31HTM   C15427625   3.780  10.445   1.251 -0.0472  0.1053 -0.0500
   31HTM    S1627626   3.608  10.483   1.287 -0.1579 -0.1319 -0.3266
   32TAL   C15527627   3.918  10.215   1.207  0.4545 -0.7401  0.1121
   32TAL   C15627628   4.056  10.261   1.159 -0.2881  0.5447 -0.1172
   32TAL   C15727629   4.148  10.311   1.255 -0.5866  0.6642 -0.1311
   32TAL   C15827630   4.276  10.367   1.198 -0.2025  0.0932  0.1698
   32TAL   C15927631   4.350  10.442   1.298 -0.3035  0.3599 -0.7278
   32TAL   C16027632   4.476  10.511   1.242 -0.2283 -0.1565  0.0744
   33HTM   C16127633   3.880  10.545   1.251 -0.2184  0.0568 -0.2391
   33HTM   C16227634   3.926  10.608   1.363  0.1546 -0.1408 -0.2798
   33HTM   C16327635   4.015  10.717   1.334  0.3116 -0.2931 -0.3727
   33HTM   C16427636   4.037  10.737   1.201  0.0582 -0.2114 -0.4030
   33HTM    S1727637   3.946  10.619   1.101 -0.4016  0.0661 -0.3158
   34TAL   C16527638   4.062  10.802   1.452 -0.2115  0.1521  0.1617
   34TAL   C16627639   3.971  10.926   1.471  0.1735 -0.4329 -0.1151
   34TAL   C16727640   3.826  10.892   1.502 -0.3307  0.3985 -0.1670
   34TAL   C16827641   3.791  10.807   1.622  0.0791  0.3129  0.0222
   34TAL   C16927642   3.644  10.798   1.665 -0.6566  0.8984  0.0655
   34TAL   C17027643   3.545  10.733   1.575  0.6338 -0.1229  0.2058
   35HTM   C17127644   4.131  10.816   1.130 -0.3252  0.1259  0.2999
   35HTM   C17227645   4.122  10.888   1.014 -0.4215  0.2936  0.4101
   35HTM   C17327646   4.245  10.951   0.975 -0.3910  0.1540  0.2752
   35HTM   C17427647   4.348  10.928   1.062 -0.2715 -0.1203  0.0621
   35HTM    S1827648   4.297  10.824   1.200 -0.1871 -0.2242  0.0149
   36TAL   C17527649   4.263  11.039   0.851 -0.2142  0.1375  0.2466
   36TAL   C17627650   4.162  11.152   0.809 -0.0779 -0.3094  0.2979
   36TAL   C17727651   4.031  11.098   0.750 -0.2839 -0.3650 -0.1919
   36TAL   C17827652   3.925  11.212   0.721  0.6960  0.0909 -0.3305
   36TAL   C17927653   3.778  11.166   0.685 -0.5631 -0.1263  0.6743
   36TAL   C18027654   3.670  11.275   0.679 -0.7926 -0.3985 -0.5300
   37HTM   C18127655   4.490  10.948   1.049  0.2957 -0.4442 -0.1807
   37HTM   C18227656   4.588  10.857   1.074  0.3951 -0.4033 -0.4247
   37HTM   C18327657   4.720  10.903   1.041  0.3211 -0.2530 -0.5087
   37HTM   C18427658   4.723  11.030   0.991  0.1656 -0.1793 -0.3289
   37HTM    S1927659   4.557  11.101   0.982  0.0999 -0.2950 -0.0373
   38TAL   C18527660   4.838  10.815   1.062 -0.1134  0.0420 -0.5754
   38TAL   C18627661   4.826  10.667   1.095  0.4228 -0.2535 -0.1337
   38TAL   C18727662   4.882  10.620   1.227  0.1923  0.9495 -0.1163
   38TAL   C18827663   4.863  10.468   1.217 -0.2078  0.1192  0.4953
   38TAL   C18927664   4.914  10.389   1.340  0.3153  0.2280  0.5758
   38TAL   C19027665   5.058  10.406   1.382 -0.6561  0.3209  0.0626
   39HTM   C19127666   4.830  11.122   0.946  0.0442 -0.4479 -0.2521
   39HTM   C19227667   4.814  11.254   0.916 -0.1094 -0.4730 -0.2848
   39HTM   C19327668   4.939  11.323   0.894 -0.1824 -0.3051 -0.1740
   39HTM   C19427669   5.049  11.244   0.906 -0.0845 -0.1519 -0.0570
   39HTM    S2027670   5.004  11.074   0.947  0.1089 -0.2083 -0.0777
   40TAL   C19527671   4.925  11.470   0.856 -0.4545  0.0367 -0.4844
   40TAL   C19627672   4.872  11.558   0.965  0.0411  0.2349 -0.0789
   40TAL   C19727673   4.819  11.693   0.921 -0.3743 -0.3133 -0.5964
   40TAL   C19827674   4.783  11.769   1.045 -0.2047 -0.2480  0.4035
   40TAL   C19927675   4.727  11.907   1.038  0.8134 -0.5964 -0.4797
   40TAL   C20027676   4.645  11.941   1.164 -0.3483 -0.0605  0.0100
   41HTM   C20127677   5.191  11.273   0.905 -0.0674 -0.2053 -0.1072
   41HTM   C20227678   5.296  11.186   0.909 -0.0525 -0.2042 -0.4108
   41HTM   C20327679   5.425  11.249   0.901 -0.0594 -0.1390 -0.0411
   41HTM   C20427680   5.419  11.385   0.890 -0.0795 -0.0905  0.5442
   41HTM    S2127681   5.248  11.444   0.889 -0.0914 -0.1235  0.6750
   42TAL   C20527682   5.548  11.165   0.888  0.0835 -0.0655  0.4074
   42TAL   C20627683   5.548  11.066   0.773 -0.3403 -0.3353  1.0892
   42TAL   C20727684   5.674  10.987   0.745  0.4507 -0.4975  0.1666
   42TAL   C20827685   5.654  10.872   0.645  0.2640  0.2463 -0.2351
   42TAL   C20927686   5.565  10.753   0.659 -0.2560  0.7860  0.2470
   42TAL   C21027687   5.426  10.753   0.610  0.4727  0.3005 -0.1964
   43HTM   C21127688   5.517  11.487   0.870 -0.4296 -0.0658 -0.1063
   43HTM   C21227689   5.639  11.469   0.813 -0.5414 -0.1485 -0.3209
   43HTM   C21327690   5.724  11.585   0.819 -0.4475 -0.2096 -0.4596
   43HTM   C21427691   5.667  11.692   0.881 -0.2636 -0.1735 -0.3506
   43HTM    S2227692   5.499  11.654   0.937 -0.1945 -0.0587 -0.0623
   44TAL   C21527693   5.864  11.578   0.767  0.6148 -0.6904  0.2226
   44TAL   C21627694   5.990  11.583   0.858  0.0942 -0.9318 -0.1465
   44TAL   C21727695   6.119  11.602   0.790 -0.2206 -0.4673  0.0511
   44TAL   C21827696   6.192  11.481   0.738 -0.6488 -0.1337  0.1301
   44TAL   C21927697   6.328  11.529   0.704 -0.6569 -0.0356  0.8853
   44TAL   C22027698   6.410  11.416   0.635  0.5716 -1.1295 -0.8231
   45HTM   C22127699   5.717  11.821   0.928 -0.1783  0.2040  0.1444
   45HTM   C22227700   5.674  11.887   1.040 -0.0229  0.1411  0.2417
   45HTM   C22327701   5.741  12.012   1.063  0.2236 -0.0161  0.3880
   45HTM   C22427702   5.835  12.042   0.969  0.2560 -0.0735  0.4023
   45HTM    S2327703   5.847  11.913   0.843 -0.0244  0.0681  0.2308
   46TAL   C22527704   5.703  12.098   1.181  0.0132 -0.3331 -0.6689
   46TAL   C22627705   5.819  12.115   1.289  1.1277  0.0582  0.6294
   46TAL   C22727706   5.779  12.215   1.396 -0.6276  0.0284  0.0124
   46TAL   C22827707   5.888  12.240   1.498 -0.2615  0.4097  0.4294
   46TAL   C22927708   5.855  12.341   1.609  0.0305 -0.8687  0.0404
   46TAL   C23027709   5.977  12.363   1.705  0.7498 -0.1521  0.0352
   47HTM   C23127710   5.923  12.155   0.958 -0.8188 -0.1691  0.2118
   47HTM   C23227711   6.054  12.148   0.921 -0.7076 -0.7129  0.6825
   47HTM   C23327712   6.123  12.274   0.932 -0.2375 -0.9867  0.8776
   47HTM   C23427713   6.045  12.376   0.977  0.0102 -0.6518  0.5555
   47HTM    S2427714   5.876  12.321   1.010 -0.3341  0.0410 -0.0235
   48TAL   C23527715   6.272  12.272   0.923 -0.4019 -1.0074  0.1023
   48TAL   C23627716   6.342  12.408   0.948  0.3997 -0.2320 -0.2236
   48TAL   C23727717   6.317  12.522   0.856 -0.3928 -0.2204  0.3702
   48TAL   C23827718   6.361  12.499   0.710 -0.1449  0.2532 -0.3187
   48TAL   C23927719   6.303  12.614   0.627 -1.0086  0.9554  0.9896
   48TAL   C24027720   6.356  12.607   0.478  0.5007  0.3387 -0.1108
    1HTM     C127721   8.322   8.292   5.397  0.0023 -0.3536 -0.1482
    1HTM     C227722   8.205   8.344   5.445 -0.0868 -0.2165 -0.5050
    1HTM     C327723   8.218   8.407   5.573 -0.3371  0.0787 -0.6235
    1HTM     C427724   8.345   8.404   5.623 -0.4383  0.1671 -0.3577
    1HTM     S127725   8.459   8.321   5.511 -0.2247 -0.1178  0.0668
    2TAL     C527726   8.103   8.473   5.655  0.1487 -0.0217 -0.6016
    2TAL     C627727   7.958   8.425   5.626 -0.1698  0.6615  0.4981
    2TAL     C727728   7.846   8.521   5.667  0.3303  0.5087  0.8681
    2TAL     C827729   7.823   8.534   5.817  1.3068 -0.1334 -0.1593
    2TAL     C927730   7.782   8.419   5.914  0.5611 -0.6199 -0.6672
    2TAL    C1027731   7.780   8.484   6.051  0.3630 -0.0771  0.1503
    3HTM    C1127732   8.397   8.441   5.756  0.1079 -0.1218 -0.1272
    3HTM    C1227733   8.362   8.551   5.829 -0.4010 -0.2542 -0.1707
    3HTM    C1327734   8.437   8.566   5.951 -0.8016 -0.1206  0.0598
    3HTM    C1427735   8.529   8.467   5.971 -0.5987  0.1142  0.2797
    3HTM     S227736   8.529   8.348   5.836  0.1209  0.1841  0.2116
    4TAL    C1527737   8.412   8.690   6.043 -0.1484  0.0577  0.6921
    4TAL    C1627738   8.274   8.684   6.116  0.4604 -0.4927 -0.1623
    4TAL    C1727739   8.236   8.818   6.181  0.2882  0.8530 -0.4530
    4TAL    C1827740   8.295   8.838   6.323  0.2403  0.5092 -0.6368
    4TAL    C1927741   8.235   8.962   6.390 -0.2461  0.4690  0.0209
    4TAL    C2027742   8.270   8.985   6.534  0.5328 -0.0962  0.0538
    5HTM    C2127743   8.627   8.437   6.074 -0.3772 -0.3309  0.2888
    5HTM    C2227744   8.688   8.318   6.098 -0.4935 -0.3743  0.3698
    5HTM    C2327745   8.791   8.324   6.199 -0.1855 -0.3104  0.0551
    5HTM    C2427746   8.808   8.448   6.253  0.1663 -0.2180 -0.2658
    5HTM     S327747   8.694   8.568   6.179  0.1347 -0.2046 -0.1946
    6TAL    C2527748   8.862   8.192   6.236 -0.5066 -0.1323 -0.2552
    6TAL    C2627749   8.777   8.106   6.333  0.3369 -0.1767 -0.2866
    6TAL    C2727750   8.823   7.956   6.342  0.7620 -0.9249  0.9075
    6TAL    C2827751   8.863   7.929   6.481  0.2753  0.7452  0.5431
    6TAL    C2927752   8.866   7.780   6.514 -0.1198 -0.5481  1.4327
    6TAL    C3027753   8.904   7.748   6.653  0.1904  0.4989 -0.4807
    7HTM    C3127754   8.915   8.498   6.337 -0.0477 -0.1932  0.2637
    7HTM    C3227755   9.004   8.421   6.406  0.3457  0.0434  0.0191
    7HTM    C3327756   9.085   8.497   6.498  0.3748  0.2542 -0.1769
    7HTM    C3427757   9.058   8.630   6.500  0.0036  0.1775 -0.0816
    7HTM     S427758   8.926   8.672   6.384 -0.4156 -0.1689  0.2656
    8TAL    C3527759   9.197   8.429   6.584 -0.1407  0.1273  0.2864
    8TAL    C3627760   9.245   8.285   6.551  0.1208 -0.1349  0.1875
    8TAL    C3727761   9.362   8.242   6.642  0.1688  0.1257  0.9702
    8TAL    C3827762   9.383   8.088   6.630  0.0649 -0.1311 -0.2417
    8TAL    C3927763   9.428   8.024   6.495 -0.3479 -0.5350 -0.8769
    8TAL    C4027764   9.567   8.068   6.441 -0.0239  0.0153 -0.7402
    9HTM    C4127765   9.111   8.737   6.581 -0.0739 -0.2676  0.1455
    9HTM    C4227766   9.228   8.749   6.649 -0.1171 -0.6757  0.2921
    9HTM    C4327767   9.240   8.872   6.723  0.3456 -0.5798  0.0637
    9HTM    C4427768   9.131   8.954   6.711  0.7415 -0.0988 -0.2572
    9HTM     S527769   9.005   8.882   6.604  0.5588  0.2740 -0.2961
   10TAL    C4527770   9.366   8.909   6.808 -0.0311  0.3655  0.1520
   10TAL    C4627771   9.490   8.824   6.781  0.4811 -0.0202  0.2738
   10TAL    C4727772   9.620   8.839   6.854  0.1750  0.1121 -0.9656
   10TAL    C4827773   9.673   8.977   6.862  0.4534 -0.0698  0.2982
   10TAL    C4927774   9.796   9.000   6.943 -0.6719 -0.0042 -0.0511
   10TAL    C5027775   9.822   9.150   6.965 -0.5336  0.0411  0.8482
   11HTM    C5127776   9.087   9.075   6.777  0.0492 -0.3171 -0.2964
   11HTM    C5227777   8.964   9.094   6.833  0.0148 -0.0654 -0.4580
   11HTM    C5327778   8.957   9.210   6.919  0.1159 -0.0046 -0.5314
   11HTM    C5427779   9.075   9.278   6.929  0.2277 -0.2099 -0.4252
   11HTM     S627780   9.204   9.202   6.829  0.2138 -0.4981 -0.2237
   12TAL    C5527781   8.821   9.232   6.997  0.0530 -0.2069  0.4940
   12TAL    C5627782   8.831   9.225   7.153 -0.0623  0.2882 -0.1442
   12TAL    C5727783   8.694   9.215   7.233 -0.2189 -0.5653 -0.2926
   12TAL    C5827784   8.625   9.077   7.235  0.2010 -0.0820  0.1029
   12TAL    C5927785   8.715   8.963   7.283  0.0285 -0.0249 -0.4153
   12TAL    C6027786   8.642   8.834   7.303  0.2554 -0.0765 -0.1129
   13HTM    C6127787   9.103   9.400   7.009  0.4740  0.1709 -0.1743
   13HTM    C6227788   9.217   9.433   7.076  0.3469  0.4371 -0.0858
   13HTM    C6327789   9.225   9.572   7.113 -0.2358  0.3551  0.3617
   13HTM    C6427790   9.117   9.645   7.074 -0.5531  0.0263  0.6146
   13HTM     S727791   8.996   9.544   6.987 -0.1372 -0.2070  0.3047
   14TAL    C6527792   9.340   9.621   7.206  0.2894 -0.1180 -0.2004
   14TAL    C6627793   9.480   9.566   7.180 -0.2017  0.1662  0.1658
   14TAL    C6727794   9.588   9.597   7.282 -0.3256  0.1628  0.2330
   14TAL    C6827795   9.572   9.525   7.419  0.0568  0.2333  0.8551
   14TAL    C6927796   9.629   9.594   7.534 -0.2367 -0.5286 -0.2267
   14TAL    C7027797   9.597   9.526   7.666  0.2505 -0.1839  0.1821
   15HTM    C7127798   9.077   9.789   7.080 -0.3663 -0.2432  0.1482
   15HTM    C7227799   9.109   9.889   7.167 -0.1411 -0.2177  0.0367
   15HTM    C7327800   9.026  10.006   7.155  0.0770 -0.0694 -0.0460
   15HTM    C7427801   8.930   9.995   7.059  0.0181  0.0182  0.0022
   15HTM     S827802   8.938   9.835   6.975 -0.3199 -0.0806  0.1577
   16TAL    C7527803   9.048  10.136   7.235 -0.1286 -0.4617  0.5239
   16TAL    C7627804   9.163  10.237   7.205  0.2493 -0.3142 -0.0482
   16TAL    C7727805   9.180  10.286   7.061  0.0526  0.3026  0.0306
   16TAL    C7827806   9.303  10.370   7.038 -0.4194  0.5867 -0.1457
   16TAL    C7927807   9.348  10.375   6.891 -0.5078 -0.1858 -0.1174
   16TAL    C8027808   9.477  10.457   6.881 -0.1653  0.1404 -0.4990
   17HTM    C8127809   8.824  10.087   7.015  0.2105  0.2189  0.4266
   17HTM    C8227810   8.786  10.098   6.885  0.3452  0.1147  0.3781
   17HTM    C8327811   8.660  10.165   6.867  0.3767  0.1221  0.1926
   17HTM    C8427812   8.602  10.205   6.983  0.2648  0.2318  0.0996
   17HTM     S927813   8.702  10.161   7.126  0.1112  0.3352  0.2401
   18TAL    C8527814   8.598  10.165   6.724  0.2806 -0.0448  0.2199
   18TAL    C8627815   8.689  10.208   6.610  0.2649  0.0891  0.5015
   18TAL    C8727816   8.623  10.242   6.481 -0.3637  0.1504  0.4165
   18TAL    C8827817   8.517  10.354   6.474  0.1993  0.1608  0.1220
   18TAL    C8927818   8.577  10.496   6.509  0.7247 -0.1828  0.1609
   18TAL    C9027819   8.475  10.601   6.547  0.3996  0.0872 -0.2206
   19HTM    C9127820   8.472  10.263   7.006 -0.0055  0.5333  0.1942
   19HTM    C9227821   8.370  10.215   7.084  0.1192  0.8122  0.5352
   19HTM    C9327822   8.250  10.294   7.078  0.1283  0.8225  0.4826
   19HTM    C9427823   8.260  10.403   6.997  0.0108  0.5517  0.1013
   19HTM    S1027824   8.423  10.414   6.920 -0.1216  0.2601 -0.2234
   20TAL    C9527825   8.128  10.265   7.154 -0.3631 -0.2972 -0.2794
   20TAL    C9627826   8.137  10.246   7.309  0.1471  1.2809  0.1140
   20TAL    C9727827   8.010  10.253   7.387  0.1457  0.1645  0.0584
   20TAL    C9827828   7.905  10.155   7.355  0.3244  0.2259  0.3126
   20TAL    C9927829   7.766  10.171   7.420 -1.0530  0.8162  0.3535
   20TAL   C10027830   7.674  10.050   7.399 -0.4710 -0.0056 -0.6105
   21HTM   C10127831   8.172  10.500   6.939  0.2475 -0.0654  0.5504
   21HTM   C10227832   8.178  10.541   6.809  0.6547  0.1478  0.6332
   21HTM   C10327833   8.064  10.619   6.768  0.9108  0.4426  0.4797
   21HTM   C10427834   7.972  10.638   6.866  0.6990  0.4541  0.2797
   21HTM    S1127835   8.022  10.558   7.020  0.1548  0.0907  0.2699
   22TAL   C10527836   8.053  10.670   6.625 -0.2978 -0.1592 -0.3088
   22TAL   C10627837   8.130  10.807   6.605  0.1439 -0.1508 -0.4320
   22TAL   C10727838   8.133  10.862   6.464 -0.4705 -0.2393  0.3648
   22TAL   C10827839   8.238  10.968   6.432 -0.6035  0.1872 -0.6438
   22TAL   C10927840   8.387  10.929   6.457  0.8720  0.2566 -0.1842
   22TAL   C11027841   8.485  11.035   6.404 -0.3915 -0.2693 -1.0562
   23HTM   C11127842   7.847  10.714   6.873  0.1014  0.7687 -0.3719
   23HTM   C11227843   7.828  10.819   6.958  0.0198  1.0638 -0.7477
   23HTM   C11327844   7.708  10.894   6.932 -0.1323  0.7656 -0.9089
   23HTM   C11427845   7.636  10.847   6.826 -0.1664  0.2430 -0.6554
   23HTM    S1227846   7.715  10.703   6.751 -0.0081  0.0858 -0.1906
   24TAL   C11527847   7.661  11.010   7.015  0.3864  0.2543  0.1999
   24TAL   C11627848   7.669  10.988   7.169 -0.8526 -0.1825 -0.0258
   24TAL   C11727849   7.632  11.120   7.246 -0.0949 -0.3559 -0.3967
   24TAL   C11827850   7.612  11.095   7.393  0.9741 -1.0600  0.3132
   24TAL   C11927851   7.575  11.230   7.449  0.6065  0.1056 -0.2684
   24TAL   C12027852   7.546  11.213   7.595  0.6311 -0.4692  1.0906
   25HTM   C12127853   7.509  10.881   6.781  0.0941  0.3453 -0.0153
   25HTM   C12227854   7.393  10.827   6.829  0.0379  0.1988 -0.3157
   25HTM   C12327855   7.275  10.871   6.759  0.1688 -0.0168 -0.6778
   25HTM   C12427856   7.300  10.959   6.658  0.3252 -0.0347 -0.6541
   25HTM    S1327857   7.477  10.993   6.643  0.3193  0.2214 -0.1683
   26TAL   C12527858   7.136  10.813   6.798 -0.8051 -0.0186 -0.0094
   26TAL   C12627859   7.110  10.820   6.951 -0.7338  0.0417  0.2080
   26TAL   C12727860   7.175  10.710   7.042 -0.2920  0.4710  0.1818
   26TAL   C12827861   7.113  10.695   7.175  0.5140  0.0808 -0.0742
   26TAL   C12927862   7.127  10.809   7.277  0.3031 -0.8066  0.1408
   26TAL   C13027863   7.262  10.839   7.332  0.0888 -0.3874  0.4719
   27HTM   C13127864   7.209  11.036   6.579  0.0096 -0.2961 -0.0534
   27HTM   C13227865   7.080  11.012   6.542  0.1762 -0.6921 -0.3941
   27HTM   C13327866   7.024  11.117   6.460  0.1163 -0.9302 -0.6566
   27HTM   C13427867   7.110  11.219   6.434 -0.0961 -0.7157 -0.5156
   27HTM    S1427868   7.270  11.192   6.513 -0.2380 -0.1922 -0.0373
   28TAL   C13527869   6.878  11.124   6.414  0.3114 -0.1811  0.5875
   28TAL   C13627870   6.774  11.053   6.498  0.4887  0.0297 -0.5063
   28TAL   C13727871   6.749  11.107   6.641 -0.3399  0.2007 -0.1581
   28TAL   C13827872   6.737  11.259   6.663 -0.3655 -0.2276  0.1004
   28TAL   C13927873   6.818  11.323   6.772 -0.2295  0.5384 -0.4077
   28TAL   C14027874   6.972  11.332   6.764  0.3350 -0.0258 -0.2551
   29HTM   C14127875   7.083  11.350   6.375  0.2393  0.3124  0.1536
   29HTM   C14227876   7.088  11.470   6.439  0.2117  0.3829  0.0229
   29HTM   C14327877   7.046  11.581   6.357  0.3643  0.3091 -0.1566
   29HTM   C14427878   7.009  11.545   6.231  0.5074  0.1820 -0.1629
   29HTM    S1527879   7.024  11.367   6.205  0.4609  0.1456  0.0593
   30TAL   C14527880   7.023  11.721   6.420 -0.1236 -0.0995 -0.3453
   30TAL   C14627881   6.982  11.723   6.567  0.2404 -0.3181 -0.6928
   30TAL   C14727882   6.848  11.665   6.594  0.3565 -0.0769 -0.0937
   30TAL   C14827883   6.771  11.700   6.725  0.3347 -0.1873 -0.3557
   30TAL   C14927884   6.629  11.654   6.725 -0.0856  0.3542  0.0199
   30TAL   C15027885   6.556  11.675   6.863 -0.0264 -0.1761 -0.4419
   31HTM   C15127886   6.954  11.640   6.131 -0.0841  0.3313  0.2395
   31HTM   C15227887   7.007  11.759   6.090 -0.3066  0.5352  0.5372
   31HTM   C15327888   6.935  11.821   5.982 -0.1705  0.4563  0.4013
   31HTM   C15427889   6.827  11.749   5.940  0.1563  0.1921 -0.0005
   31HTM    S1627890   6.807  11.597   6.035  0.3183  0.0211 -0.2403
   32TAL   C15527891   6.976  11.952   5.928  0.2995 -0.3585  0.6788
   32TAL   C15627892   7.059  12.058   6.007 -0.4190  0.6205  0.3624
   32TAL   C15727893   7.202  12.010   6.034 -0.5090 -1.1012 -0.5976
   32TAL   C15827894   7.255  12.062   6.166 -0.0050 -0.0905 -0.0381
   32TAL   C15927895   7.373  11.985   6.205 -0.6507  0.4043 -0.6504
   32TAL   C16027896   7.430  12.041   6.338 -0.0877  0.0607  0.5848
   33HTM   C16127897   6.739  11.770   5.820  0.1122  0.0816  0.3392
   33HTM   C16227898   6.698  11.686   5.721  0.1519 -0.1386  0.5074
   33HTM   C16327899   6.608  11.747   5.627  0.2534 -0.3231  0.2897
   33HTM   C16427900   6.580  11.878   5.654  0.2905 -0.2435 -0.0446
   33HTM    S1727901   6.666  11.934   5.803  0.1999  0.0731 -0.1109
   34TAL   C16527902   6.554  11.683   5.501 -0.4072 -0.3074 -0.0466
   34TAL   C16627903   6.641  11.587   5.420  0.2280 -0.8287 -0.1630
   34TAL   C16727904   6.791  11.617   5.398 -0.0953  0.4634 -0.6002
   34TAL   C16827905   6.862  11.526   5.310 -0.6163  0.1853  0.3216
   34TAL   C16927906   6.998  11.587   5.278  0.0563  0.2036  0.3409
   34TAL   C17027907   7.061  11.510   5.167  0.1332  0.4306  0.1319
   35HTM   C17127908   6.504  11.982   5.595 -0.0517 -0.3098  0.0943
   35HTM   C17227909   6.537  12.114   5.584  0.1986 -0.3470  0.3960
   35HTM   C17327910   6.426  12.198   5.549  0.3674 -0.0609  0.5450
   35HTM   C17427911   6.308  12.130   5.532  0.2463  0.1942  0.3566
   35HTM    S1827912   6.329  11.953   5.560 -0.0936  0.0926 -0.0260
   36TAL   C17527913   6.459  12.340   5.518 -0.2388 -0.3122 -0.0933
   36TAL   C17627914   6.542  12.425   5.610 -0.0335  0.2285 -0.8910
   36TAL   C17727915   6.538  12.576   5.591  0.7001  0.1682  0.2132
   36TAL   C17827916   6.665  12.641   5.637 -0.0153 -0.1429 -0.5536
   36TAL   C17927917   6.687  12.668   5.786 -0.0579  0.1880  0.1610
   36TAL   C18027918   6.812  12.751   5.822  0.6940  0.1185  0.9140
   37HTM   C18127919   6.171  12.182   5.526  0.1665  0.2354 -0.2453
   37HTM   C18227920   6.054  12.111   5.529  0.1619  0.2142 -0.8159
   37HTM   C18327921   5.937  12.194   5.542  0.1311  0.1518 -0.6979
   37HTM   C18427922   5.964  12.327   5.549  0.1119  0.1250 -0.0373
   37HTM    S1927923   6.141  12.360   5.539  0.1317  0.1772  0.4910
   38TAL   C18527924   5.802  12.131   5.543  0.3578 -0.6918  0.3063
   38TAL   C18627925   5.722  12.107   5.673  0.2215 -0.6808 -0.6003
   38TAL   C18727926   5.574  12.060   5.656 -0.1376 -0.1014  0.4909
   38TAL   C18827927   5.481  12.036   5.772 -0.6210  0.7949 -0.9107
   38TAL   C18927928   5.537  11.931   5.873 -0.7737 -0.2617 -0.3213
   38TAL   C19027929   5.480  11.947   6.018  0.2020  0.1720  0.5288
   39HTM   C19127930   5.883  12.449   5.548 -0.1503 -0.0981 -0.2592
   39HTM   C19227931   5.927  12.567   5.497 -0.1674 -0.1785 -0.4604
   39HTM   C19327932   5.827  12.671   5.494 -0.0703 -0.0795 -0.2654
   39HTM   C19427933   5.706  12.631   5.544  0.0200  0.0763  0.0844
   39HTM    S2027934   5.710  12.459   5.597 -0.0098  0.1103  0.1956
   40TAL   C19527935   5.856  12.810   5.438 -0.0298  0.4435  0.5894
   40TAL   C19627936   5.992  12.832   5.360  0.1923  0.5446 -0.6485
   40TAL   C19727937   6.127  12.814   5.425  0.6526 -0.0077 -0.0360
   40TAL   C19827938   6.246  12.829   5.332  0.4291 -0.1097  0.0314
   40TAL   C19927939   6.275  12.723   5.222 -0.3297 -0.4272 -0.1826
   40TAL   C20027940   6.329  12.589   5.259  0.0274  0.2836 -0.7241
   41HTM   C20127941   5.578  12.695   5.561 -0.0922 -0.0246  0.3341
   41HTM   C20227942   5.552  12.829   5.562  0.1240  0.0169  0.9115
   41HTM   C20327943   5.414  12.861   5.587  0.1559  0.1272  0.9449
   41HTM   C20427944   5.335  12.752   5.606 -0.0364  0.1696  0.3923
   41HTM    S2127945   5.429  12.598   5.593 -0.2738  0.0732 -0.2173
   42TAL   C20527946   5.361  13.001   5.581  0.4484 -0.0960  0.0664
   42TAL   C20627947   5.456  13.121   5.584 -0.5007  0.6734  0.4516
   42TAL   C20727948   5.411  13.264   5.542  0.3958  0.1764 -0.5278
   42TAL   C20827949   5.272  13.310   5.595  0.6472  0.4098  0.2333
   42TAL   C20927950   5.235  13.449   5.550  0.8723 -0.4000 -0.2751
   42TAL   C21027951   5.108  13.505   5.618  0.0971  0.6291  0.0638
   43HTM   C21127952   5.205  12.733   5.658  0.0662  0.2932 -0.5556
   43HTM   C21227953   5.138  12.614   5.652  0.3653  0.1276 -0.6149
   43HTM   C21327954   4.998  12.625   5.682  0.4463 -0.3313 -0.0567
   43HTM   C21427955   4.957  12.752   5.711  0.2094 -0.5157  0.4282
   43HTM    S2227956   5.094  12.868   5.703 -0.1375 -0.1210  0.2159
   44TAL   C21527957   4.927  12.492   5.680  0.0871  0.8581 -0.2763
   44TAL   C21627958   4.783  12.468   5.726 -0.2571  0.3269  0.1581
   44TAL   C21727959   4.715  12.345   5.672  0.0008 -0.2185  0.1303
   44TAL   C21827960   4.572  12.344   5.706  0.6243 -0.5347  0.0782
   44TAL   C21927961   4.500  12.228   5.628 -0.0698 -0.6131 -0.0727
   44TAL   C22027962   4.351  12.200   5.649 -0.3985  0.0949 -0.3691
   45HTM   C22127963   4.825  12.799   5.733  0.2135 -0.0540 -0.1689
   45HTM   C22227964   4.731  12.762   5.825  0.2716 -0.3624 -0.2339
   45HTM   C22327965   4.608  12.836   5.815  0.1547 -0.5385 -0.1044
   45HTM   C22427966   4.608  12.930   5.716  0.0076 -0.3646  0.0591
   45HTM    S2327967   4.765  12.932   5.627  0.0053  0.0382  0.0626
   46TAL   C22527968   4.497  12.791   5.905 -0.6442  0.4020 -0.4129
   46TAL   C22627969   4.503  12.850   6.049 -0.3217  0.0900 -0.0032
   46TAL   C22727970   4.443  12.986   6.094 -0.4319  0.4967  0.5276
   46TAL   C22827971   4.290  13.011   6.079 -0.0639  0.0336  0.5178
   46TAL   C22927972   4.210  12.918   6.164 -0.7694 -0.0755  0.0546
   46TAL   C23027973   4.055  12.922   6.135 -1.0000 -0.3335  0.0022
   47HTM   C23127974   4.500  13.018   5.675 -0.1211 -0.4082 -0.0662
   47HTM   C23227975   4.365  13.003   5.688 -0.1519 -0.2673 -0.2224
   47HTM   C23327976   4.289  13.100   5.613  0.0350 -0.2398 -0.3774
   47HTM   C23427977   4.366  13.188   5.543  0.2083 -0.3604 -0.3399
   47HTM    S2427978   4.541  13.156   5.567  0.1481 -0.5182 -0.1036
   48TAL   C23527979   4.132  13.101   5.610 -0.8892  0.0904 -0.4079
   48TAL   C23627980   4.053  13.184   5.502 -0.0189 -0.1392 -0.1712
   48TAL   C23727981   4.051  13.115   5.365  0.2587  0.2709 -0.3221
   48TAL   C23827982   3.923  13.023   5.344 -0.3481  0.0426 -0.0166
   48TAL   C23927983   3.930  12.958   5.206 -1.1354  0.1066  0.3779
   48TAL   C24027984   3.853  12.831   5.202 -0.3955 -0.2250  1.1699
    1HTM     C127985   8.453   4.898   6.864  0.3980  0.1458 -0.4821
    1HTM     C227986   8.326   4.873   6.905  0.3691  0.4926 -0.3595
    1HTM     C327987   8.283   4.738   6.882  0.0644  0.5434 -0.0930
    1HTM     C427988   8.377   4.659   6.823 -0.1399  0.2351 -0.0129
    1HTM     S127989   8.529   4.751   6.792  0.0386 -0.1460 -0.2690
    2TAL     C527990   8.135   4.709   6.925 -1.1520  0.1196 -0.5206
    2TAL     C627991   8.086   4.568   6.978 -0.4180  0.1716 -0.4077
    2TAL     C727992   8.174   4.498   7.077 -0.5393 -0.3469 -0.1339
    2TAL     C827993   8.160   4.352   7.104 -0.0900  0.1733 -0.0184
    2TAL     C927994   8.259   4.313   7.213 -0.0117  0.3264 -0.3275
    2TAL    C1027995   8.351   4.204   7.173  0.4265 -0.3687  0.0069
    3HTM    C1127996   8.362   4.526   6.777  0.1455  0.2830  0.1780
    3HTM    C1227997   8.299   4.482   6.665 -0.2432  0.4725  0.3188
    3HTM    C1327998   8.297   4.338   6.653 -0.6223  0.4811  0.2766
    3HTM    C1427999   8.358   4.274   6.756 -0.5228  0.2980  0.1036
    3HTM     S228000   8.424   4.390   6.877  0.0623  0.0994 -0.0208
    4TAL    C1528001   8.222   4.263   6.540 -0.6533  0.7457 -0.4862
    4TAL    C1628002   8.295   4.283   6.411 -0.0326  0.3904  0.0657
    4TAL    C1728003   8.283   4.180   6.294 -0.1885  0.0448 -0.6435
    4TAL    C1828004   8.147   4.131   6.253  0.1217  0.2018 -0.0640
    4TAL    C1928005   8.170   4.026   6.147 -0.6045 -0.3481  0.0337
    4TAL    C2028006   8.044   3.993   6.087  0.1275  0.4978  0.2820
    5HTM    C2128007   8.364   4.130   6.791 -0.2012  0.5225  0.1547
    5HTM    C2228008   8.476   4.054   6.806 -0.0515  0.7253  0.0682
    5HTM    C2328009   8.450   3.918   6.845  0.2151  0.6297 -0.0792
    5HTM    C2428010   8.317   3.891   6.860  0.2688  0.3540 -0.1046
    5HTM     S328011   8.215   4.035   6.826 -0.0147  0.1923  0.0566
    6TAL    C2528012   8.553   3.807   6.872  0.4800  0.3401 -0.3161
    6TAL    C2628013   8.672   3.810   6.782 -0.5638  0.7215 -0.5515
    6TAL    C2728014   8.772   3.916   6.816 -0.4583 -0.3687  0.2774
    6TAL    C2828015   8.891   3.929   6.725  0.1538 -0.2204  0.2025
    6TAL    C2928016   8.994   4.036   6.768  0.1106 -0.6916 -0.4716
    6TAL    C3028017   9.091   4.072   6.655 -0.1866  0.1815  0.0339
    7HTM    C3128018   8.243   3.766   6.879  0.0651 -0.4390  0.3276
    7HTM    C3228019   8.270   3.649   6.945 -0.1712 -0.5624  0.2038
    7HTM    C3328020   8.178   3.543   6.913 -0.1659 -0.4499 -0.1895
    7HTM    C3428021   8.082   3.578   6.823  0.0749 -0.2407 -0.3657
    7HTM     S428022   8.100   3.750   6.771  0.3148 -0.1689 -0.0457
    8TAL    C3528023   8.198   3.406   6.978 -0.3679 -0.0725 -0.2331
    8TAL    C3628024   8.089   3.316   7.005  0.4278 -0.1499 -0.0944
    8TAL    C3728025   8.088   3.185   6.917 -0.2407  0.0366 -0.2310
    8TAL    C3828026   7.972   3.093   6.906  0.3775 -0.0741 -0.2459
    8TAL    C3928027   7.992   2.956   6.847  0.2928  0.0116 -0.4647
    8TAL    C4028028   7.889   2.852   6.887  0.0951  0.0667 -0.8195
    9HTM    C4128029   8.012   3.500   6.734 -0.2162  0.4772 -0.4586
    9HTM    C4228030   7.877   3.485   6.719 -0.1862  0.3945 -0.6423
    9HTM    C4328031   7.840   3.402   6.607  0.0234  0.1208 -0.5090
    9HTM    C4428032   7.947   3.353   6.538  0.1533 -0.0053 -0.2232
    9HTM     S528033   8.103   3.409   6.608  0.0193  0.2139 -0.0992
   10TAL    C4528034   7.691   3.370   6.582 -0.5221  0.0241 -0.5142
   10TAL    C4628035   7.631   3.430   6.461 -0.0051 -0.3858 -0.1051
   10TAL    C4728036   7.495   3.371   6.449  0.1990  0.6306  0.4781
   10TAL    C4828037   7.423   3.424   6.327 -0.2906 -0.1469 -0.6508
   10TAL    C4928038   7.283   3.365   6.310  0.2272  0.2042 -0.3191
   10TAL    C5028039   7.199   3.440   6.214  0.5181  0.2127 -0.2685
   11HTM    C5128040   7.960   3.263   6.421 -0.4681 -0.1203 -0.1270
   11HTM    C5228041   7.885   3.270   6.307 -0.3202 -0.0758 -0.2220
   11HTM    C5328042   7.937   3.191   6.199  0.0007  0.2278 -0.2885
   11HTM    C5428043   8.052   3.124   6.229  0.0980  0.4150 -0.2448
   11HTM     S628044   8.103   3.156   6.399 -0.2110  0.2206 -0.1150
   12TAL    C5528045   7.856   3.177   6.060 -0.6802  0.9897  0.4151
   12TAL    C5628046   7.704   3.204   6.061 -0.4474 -0.0137  0.1400
   12TAL    C5728047   7.655   3.346   6.031  0.7235 -0.4442 -0.5334
   12TAL    C5828048   7.524   3.352   5.955 -0.3215  0.3586  0.2798
   12TAL    C5928049   7.483   3.504   5.929 -0.0722 -0.2976 -0.2617
   12TAL    C6028050   7.373   3.529   5.824  0.3328  0.1909  0.0128
   13HTM    C6128051   8.135   3.034   6.159  0.2144  0.5111 -0.1002
   13HTM    C6228052   8.213   3.062   6.050  0.5522  0.7112  0.1924
   13HTM    C6328053   8.308   2.959   6.019  0.5441  0.6992  0.2055
   13HTM    C6428054   8.303   2.852   6.104  0.1987  0.4901 -0.0768
   13HTM     S728055   8.176   2.874   6.230 -0.1435  0.2903 -0.3842
   14TAL    C6528056   8.407   2.970   5.904 -0.2882  0.2187 -0.4166
   14TAL    C6628057   8.488   3.097   5.889  0.2564 -0.1579 -0.0812
   14TAL    C6728058   8.580   3.131   6.006 -0.6406  0.3041 -0.5556
   14TAL    C6828059   8.639   3.272   6.006  0.6842  0.2438  0.1270
   14TAL    C6928060   8.729   3.310   5.891 -0.1425  0.5835  0.1617
   14TAL    C7028061   8.858   3.222   5.883 -0.0229 -0.3781  0.1518
   15HTM    C7128062   8.387   2.740   6.119  0.0053 -0.4819 -0.3715
   15HTM    C7228063   8.342   2.611   6.114  0.3390 -0.6020 -0.3285
   15HTM    C7328064   8.433   2.515   6.170  0.5560 -0.3376 -0.2282
   15HTM    C7428065   8.548   2.571   6.218  0.3881 -0.0156 -0.1949
   15HTM     S828066   8.550   2.750   6.195 -0.0609 -0.0219 -0.2877
   16TAL    C7528067   8.415   2.363   6.163  0.0738 -0.2715 -0.2246
   16TAL    C7628068   8.315   2.290   6.070  0.4573 -0.2935 -0.4634
   16TAL    C7728069   8.334   2.325   5.923  0.5479  0.2413  0.1281
   16TAL    C7828070   8.231   2.268   5.830 -0.7525  0.1485 -0.1042
   16TAL    C7928071   8.253   2.276   5.676  0.2337 -0.3365  0.0181
   16TAL    C8028072   8.124   2.208   5.623  0.0490 -0.0538  0.5679
   17HTM    C8128073   8.660   2.519   6.301 -0.2730  0.4950  0.3453
   17HTM    C8228074   8.787   2.570   6.296 -0.3099  0.6101  0.5586
   17HTM    C8328075   8.884   2.491   6.367 -0.2708  0.4389  0.3171
   17HTM    C8428076   8.832   2.380   6.426 -0.2050  0.1934 -0.0805
   17HTM     S928077   8.655   2.366   6.397 -0.1862  0.1591 -0.1814
   18TAL    C8528078   9.033   2.540   6.377  0.2897 -0.2402 -0.2856
   18TAL    C8628079   9.090   2.557   6.520  0.0420 -0.8444 -0.1923
   18TAL    C8728080   9.238   2.592   6.526 -0.3667 -0.0499  0.1211
   18TAL    C8828081   9.338   2.490   6.458  0.7701  0.3670 -0.4010
   18TAL    C8928082   9.345   2.348   6.504  0.3817 -0.2038  0.1146
   18TAL    C9028083   9.461   2.274   6.453  0.0950  0.2474 -0.2747
   19HTM    C9128084   8.902   2.267   6.492 -0.3532 -0.1013 -0.4869
   19HTM    C9228085   8.913   2.242   6.626 -0.9499  0.0918 -0.3979
   19HTM    C9328086   9.015   2.146   6.659 -0.8855  0.3667  0.2205
   19HTM    C9428087   9.082   2.097   6.550 -0.2399  0.3834  0.6033
   19HTM    S1028088   9.020   2.169   6.397  0.3415  0.0504  0.2087
   20TAL    C9528089   9.042   2.104   6.799  0.1668  0.1721 -0.0104
   20TAL    C9628090   8.957   1.980   6.841 -0.5819  0.3741 -0.4700
   20TAL    C9728091   8.980   1.927   6.985  0.2700 -0.4833  0.7554
   20TAL    C9828092   9.128   1.896   7.019  0.0000 -0.8690 -0.5195
   20TAL    C9928093   9.137   1.813   7.143  0.1886 -0.1982  0.1184
   20TAL   C10028094   9.283   1.768   7.171  0.1010 -0.4366  0.4855
   21HTM   C10128095   9.183   1.997   6.535 -0.1944 -0.2753  0.4769
   21HTM   C10228096   9.280   1.954   6.622 -0.4839 -0.6345  0.6251
   21HTM   C10328097   9.351   1.838   6.577 -0.3109 -0.4287  0.3631
   21HTM   C10428098   9.310   1.791   6.456  0.1105  0.0874  0.0156
   21HTM    S1128099   9.176   1.892   6.388  0.3232  0.3556 -0.0084
   22TAL   C10528100   9.456   1.776   6.661 -0.7307  0.5032  0.2281
   22TAL   C10628101   9.584   1.848   6.691  0.2834 -0.1706  0.3656
   22TAL   C10728102   9.676   1.913   6.588 -0.2290 -0.6127  0.8021
   22TAL   C10828103   9.725   1.806   6.491  0.0422  0.0080  0.4595
   22TAL   C10928104   9.772   1.843   6.350  0.3709 -0.3156  0.5102
   22TAL   C11028105   9.706   1.954   6.267  0.3532  0.3802 -0.5597
   23HTM   C11128106   9.337   1.675   6.378  0.7187  0.4725 -0.1624
   23HTM   C11228107   9.408   1.562   6.407  0.9487  0.6242 -0.1276
   23HTM   C11328108   9.411   1.467   6.300  0.5200  0.2781  0.1652
   23HTM   C11428109   9.342   1.507   6.189 -0.0369 -0.1375  0.3534
   23HTM    S1228110   9.268   1.670   6.212 -0.0632 -0.1238  0.1742
   24TAL   C11528111   9.498   1.342   6.314  0.3044 -0.0212  0.8448
   24TAL   C11628112   9.620   1.335   6.410 -0.0755 -0.6718  0.4625
   24TAL   C11728113   9.732   1.439   6.394  0.1568  0.0419  0.4241
   24TAL   C11828114   9.836   1.412   6.499  0.2868 -0.0016  0.2304
   24TAL   C11928115   9.947   1.518   6.512  0.0997  0.3971  0.4780
   24TAL   C12028116  10.071   1.484   6.600  0.1343  0.5398  0.4709
   25HTM   C12128117   9.314   1.433   6.068  0.0667 -0.1704  0.0013
   25HTM   C12228118   9.247   1.492   5.965  0.4028 -0.0564 -0.1545
   25HTM   C12328119   9.217   1.403   5.856  0.4927 -0.0084 -0.2186
   25HTM   C12428120   9.262   1.275   5.876  0.2251 -0.0858 -0.1121
   25HTM    S1328121   9.345   1.258   6.035 -0.1642 -0.2264  0.0796
   26TAL   C12528122   9.129   1.433   5.739 -0.4867  0.1056  0.1876
   26TAL   C12628123   8.995   1.507   5.764  0.1458  0.8560 -0.2877
   26TAL   C12728124   8.904   1.452   5.874 -0.2984 -0.4316 -0.0308
   26TAL   C12828125   8.753   1.479   5.867 -0.5949  0.4582  0.4097
   26TAL   C12928126   8.683   1.437   5.736 -0.5347  0.0802  0.2382
   26TAL   C13028127   8.692   1.287   5.706  0.2825  0.5717  0.3171
   27HTM   C13128128   9.258   1.158   5.791  0.2408  0.1477 -0.0759
   27HTM   C13228129   9.316   1.145   5.668  0.2511  0.1335 -0.0699
   27HTM   C13328130   9.331   1.009   5.625  0.0402  0.1370 -0.1554
   27HTM   C13428131   9.284   0.917   5.714 -0.1308  0.1537 -0.2270
   27HTM    S1428132   9.217   0.997   5.861 -0.0381  0.1666 -0.1911
   28TAL   C13528133   9.396   0.972   5.492  0.2962 -0.5808  0.4755
   28TAL   C13628134   9.527   1.042   5.457 -0.7701 -0.3005 -0.2262
   28TAL   C13728135   9.565   1.017   5.315  1.2171 -0.8291  0.6461
   28TAL   C13828136   9.666   1.116   5.262  0.1542 -0.3083 -0.0239
   28TAL   C13928137   9.685   1.090   5.111  0.0694 -0.2276  0.0083
   28TAL   C14028138   9.784   1.172   5.046  0.2542 -0.0873  0.1723
   29HTM   C14128139   9.278   0.774   5.708  0.1108  0.0344 -0.4935
   29HTM   C14228140   9.378   0.682   5.698  0.0276 -0.0053 -0.9928
   29HTM   C14328141   9.331   0.546   5.686 -0.0902  0.0221 -0.8526
   29HTM   C14428142   9.196   0.535   5.686 -0.0969  0.0827 -0.2457
   29HTM    S1528143   9.116   0.696   5.702  0.0463  0.1101  0.1984
   30TAL   C14528144   9.430   0.429   5.667 -0.6582  0.0010  0.3731
   30TAL   C14628145   9.579   0.435   5.692  0.6725  0.2873  0.4738
   30TAL   C14728146   9.646   0.300   5.725 -0.0999  0.5165 -0.2420
   30TAL   C14828147   9.593   0.210   5.835 -0.0823 -0.0810 -0.2605
   30TAL   C14928148   9.561   0.281   5.964  0.3091 -0.2599  0.4306
   30TAL   C15028149   9.517   0.192   6.072 -0.0095  0.0635 -0.6529
   31HTM   C15128150   9.105   0.418   5.683  0.1167  0.2258 -0.0619
   31HTM   C15228151   9.125   0.291   5.727  0.4377  0.2131 -0.2403
   31HTM   C15328152   9.016   0.201   5.699  0.5678  0.0313 -0.1707
   31HTM   C15428153   8.913   0.260   5.632  0.3463 -0.0946  0.0610
   31HTM    S1628154   8.945   0.435   5.601 -0.0471  0.0074  0.2105
   32TAL   C15528155   9.007   0.060   5.753 -0.0404 -0.1990  0.0078
   32TAL   C15628156   9.121   0.006   5.840 -0.3581 -0.0886 -0.3684
   32TAL   C15728157   9.233  -0.045   5.748  0.4515 -0.1713  0.0549
   32TAL   C15828158   9.338  -0.105   5.844  0.4642 -0.4201 -0.9002
   32TAL   C15928159   9.460  -0.172   5.784  0.1279  0.0222  0.2083
   32TAL   C16028160   9.536  -0.266   5.872 -0.6986  0.1346 -0.7356
   33HTM   C16128161   8.793   0.206   5.579 -0.3174 -0.3183 -0.1888
   33HTM   C16228162   8.770   0.095   5.503 -0.3805  0.2957 -1.0831
   33HTM   C16328163   8.633   0.081   5.460 -0.3538  0.8020 -1.3404
   33HTM   C16428164   8.552   0.182   5.504 -0.2701  0.5742 -0.6422
   33HTM    S1728165   8.642   0.303   5.602 -0.2182 -0.3045  0.4027
   34TAL   C16528166   8.582  -0.026   5.371 -0.0466  0.4198 -0.2603
   34TAL   C16628167   8.600  -0.172   5.427 -0.0848  0.1472  0.1670
   34TAL   C16728168   8.501  -0.234   5.533 -0.0758  0.3378  0.2952
   34TAL   C16828169   8.355  -0.192   5.540  0.5871 -0.5071 -0.5619
   34TAL   C16928170   8.277  -0.212   5.416  0.4441 -0.4564 -0.2589
   34TAL   C17028171   8.124  -0.203   5.425 -0.4708 -0.1313 -0.5286
   35HTM   C17128172   8.409   0.196   5.496 -0.1839  0.3457 -0.0607
   35HTM   C17228173   8.319   0.202   5.598 -0.3557  0.5006 -0.2227
   35HTM   C17328174   8.182   0.200   5.553 -0.2809  0.2981 -0.4442
   35HTM   C17428175   8.168   0.193   5.418 -0.0527 -0.0113 -0.4507
   35HTM    S1828176   8.329   0.188   5.335  0.0872 -0.0713 -0.1759
   36TAL   C17528177   8.080   0.221   5.669  0.4116 -0.3920 -0.2103
   36TAL   C17628178   8.014   0.099   5.727  0.3082 -0.4313 -0.3227
   36TAL   C17728179   8.102   0.002   5.810  0.0481  0.1049 -1.0342
   36TAL   C17828180   8.032  -0.129   5.859 -0.2011 -0.0924  0.4520
   36TAL   C17928181   7.904  -0.135   5.940 -1.0160 -0.4374  0.1946
   36TAL   C18028182   7.891  -0.037   6.056  0.5347 -0.0396 -0.0478
   37HTM   C18128183   8.045   0.193   5.338  0.2457 -0.6981 -0.1423
   37HTM   C18228184   8.028   0.260   5.220  0.3276 -0.8561 -0.2441
   37HTM   C18328185   7.892   0.264   5.175  0.3157 -0.6607 -0.1907
   37HTM   C18428186   7.804   0.200   5.257  0.2250 -0.3538 -0.0482
   37HTM    S1928187   7.888   0.129   5.400  0.1470 -0.2872  0.0306
   38TAL   C18528188   7.854   0.330   5.043 -0.9496 -0.2372 -0.3386
   38TAL   C18628189   7.898   0.479   5.018 -0.4564  0.2364 -0.8533
   38TAL   C18728190   7.850   0.530   4.886  0.4348  0.2760  0.5273
   38TAL   C18828191   7.874   0.678   4.864 -0.0929 -0.5455 -0.3594
   38TAL   C18928192   7.797   0.738   4.745 -0.5235  0.2495 -0.2749
   38TAL   C19028193   7.793   0.885   4.759 -0.1601 -0.3896 -0.2189
   39HTM   C19128194   7.659   0.198   5.258 -0.0171 -0.1839  0.0980
   39HTM   C19228195   7.574   0.284   5.195  0.0463  0.0709  0.3612
   39HTM   C19328196   7.436   0.263   5.229  0.0825  0.4498  0.7472
   39HTM   C19428197   7.415   0.162   5.318  0.0475  0.4839  0.7783
   39HTM    S2028198   7.571   0.083   5.366 -0.0348  0.0366  0.3189
   40TAL   C19528199   7.316   0.338   5.169  0.0153  0.3409  0.0537
   40TAL   C19628200   7.356   0.458   5.088  0.2090  0.4927 -0.5999
   40TAL   C19728201   7.268   0.520   4.978 -0.3115  0.4729 -0.0374
   40TAL   C19828202   7.129   0.558   5.019  0.0391  0.0304 -0.4768
   40TAL   C19928203   7.023   0.560   4.909 -0.1053 -0.4728 -0.0017
   40TAL   C20028204   7.007   0.440   4.817 -0.0214 -0.1032 -0.4632
   41HTM   C20128205   7.301   0.114   5.392 -0.1663 -0.4693  0.3175
   41HTM   C20228206   7.286  -0.017   5.428 -0.5739 -0.2751  0.8502
   41HTM   C20328207   7.153  -0.048   5.476 -0.6859  0.3204  0.9360
   41HTM   C20428208   7.069   0.059   5.477 -0.3645  0.5810  0.4684
   41HTM    S2128209   7.150   0.208   5.416  0.1086  0.0902 -0.1205
   42TAL   C20528210   7.127  -0.188   5.510  0.0644  0.4336 -0.1371
   42TAL   C20628211   7.007  -0.270   5.443  0.2856 -0.2113 -0.3215
   42TAL   C20728212   6.991  -0.252   5.295 -0.5243  0.1595 -0.0680
   42TAL   C20828213   6.873  -0.307   5.223  0.2389  0.2023 -0.5052
   42TAL   C20928214   6.895  -0.282   5.081  0.7134 -0.1038  0.0361
   42TAL   C21028215   6.786  -0.345   4.996 -0.3724 -0.3489 -0.9104
   43HTM   C21128216   6.943   0.064   5.547  0.1773 -0.5426 -0.0752
   43HTM   C21228217   6.927   0.072   5.682  0.3915 -1.1114 -0.0138
   43HTM   C21328218   6.790   0.066   5.725  0.4392 -1.0122  0.1571
   43HTM   C21428219   6.701   0.053   5.622  0.2611 -0.3678  0.2255
   43HTM    S2228220   6.785   0.048   5.462  0.0177  0.1679  0.0787
   44TAL   C21528221   6.753   0.076   5.868  0.2668  0.0801  0.4736
   44TAL   C21628222   6.790   0.200   5.950 -0.3080  0.2989 -0.0889
   44TAL   C21728223   6.750   0.210   6.100 -0.3238 -0.0178 -0.1196
   44TAL   C21828224   6.808   0.344   6.159 -0.1476  0.3000  0.8615
   44TAL   C21928225   6.755   0.383   6.295 -0.6706  0.9027  0.3510
   44TAL   C22028226   6.832   0.502   6.353  0.1537 -0.2891 -0.0959
   45HTM   C22128227   6.557   0.049   5.618 -0.1081 -0.0534  0.1436
   45HTM   C22228228   6.468   0.090   5.712 -0.2570 -0.3672  0.1416
   45HTM   C22328229   6.330   0.075   5.672 -0.1943 -0.2484 -0.1216
   45HTM   C22428230   6.315   0.022   5.547  0.0026  0.1559 -0.3207
   45HTM    S2328231   6.474  -0.013   5.470  0.1254  0.4199 -0.1896
   46TAL   C22528232   6.223   0.124   5.761 -0.2419  0.0746 -0.0102
   46TAL   C22628233   6.182   0.031   5.881 -0.4920 -0.4666  0.7369
   46TAL   C22728234   6.144  -0.117   5.859  0.0799 -0.8249 -0.5674
   46TAL   C22828235   6.004  -0.149   5.794  0.0930 -0.4371 -0.6669
   46TAL   C22928236   5.987  -0.295   5.769 -0.0748  0.0881  0.3735
   46TAL   C23028237   5.878  -0.329   5.666  0.1210 -0.6724 -0.2100
   47HTM   C23128238   6.190  -0.023   5.486  0.1044  0.0773  0.5203
   47HTM   C23228239   6.173  -0.125   5.396  0.1969 -0.1602  0.7720
   47HTM   C23328240   6.043  -0.129   5.336  0.1628 -0.4969  0.8626
   47HTM   C23428241   5.960  -0.030   5.379  0.0449 -0.5153  0.6801
   47HTM    S2428242   6.041   0.077   5.501 -0.0337 -0.1066  0.3772
   48TAL   C23528243   5.996  -0.228   5.238 -0.4050 -0.4529  0.0703
   48TAL   C23628244   5.846  -0.228   5.203  0.3838 -0.1231 -0.6960
   48TAL   C23728245   5.811  -0.300   5.075 -0.0711  0.1262  0.4166
   48TAL   C23828246   5.665  -0.290   5.039  0.0368  0.8446 -0.2634
   48TAL   C23928247   5.625  -0.374   4.925 -0.1853  0.1707  0.1094
   48TAL   C24028248   5.534  -0.490   4.969  0.3657  0.4183  0.2538
    1HTM     C128249   6.875   3.063   5.287 -0.2790  0.1187  0.2008
    1HTM     C228250   6.854   3.196   5.266 -0.4435  0.0496 -0.0689
    1HTM     C328251   6.717   3.228   5.235 -0.4535 -0.2025 -0.2935
    1HTM     C428252   6.634   3.120   5.232 -0.2963 -0.3259 -0.1953
    1HTM     S128253   6.723   2.968   5.270 -0.1228 -0.1317  0.1916
    2TAL     C528254   6.689   3.372   5.185 -0.6853  0.2190  0.2350
    2TAL     C628255   6.752   3.486   5.267  0.2508  1.0760 -0.4109
    2TAL     C728256   6.739   3.616   5.198  0.1224 -0.5663 -0.0920
    2TAL     C828257   6.810   3.734   5.257  0.4097 -0.0705 -0.3877
    2TAL     C928258   6.966   3.736   5.261 -0.7366  0.3292 -0.2239
    2TAL    C1028259   7.036   3.667   5.385  0.2517  0.6856 -0.3439
    3HTM    C1128260   6.488   3.097   5.204  0.2065 -0.1541 -0.2011
    3HTM    C1228261   6.415   2.982   5.213  0.2627 -0.2072 -0.4072
    3HTM    C1328262   6.274   3.000   5.190  0.2544 -0.2338 -0.3784
    3HTM    C1428263   6.239   3.129   5.162  0.1919 -0.2008 -0.1500
    3HTM     S228264   6.383   3.238   5.163  0.1384 -0.1331  0.0476
    4TAL    C1528265   6.181   2.878   5.201 -0.0054 -0.5914  0.0587
    4TAL    C1628266   6.223   2.752   5.275  0.1769 -0.6076  0.6606
    4TAL    C1728267   6.120   2.643   5.301  0.3259 -0.5308  0.5200
    4TAL    C1828268   6.048   2.585   5.180  0.0324 -0.4007  0.8042
    4TAL    C1928269   5.956   2.472   5.226  0.3407 -0.1189 -0.8367
    4TAL    C2028270   5.872   2.428   5.109  0.4538 -0.2763 -0.3721
    5HTM    C2128271   6.105   3.196   5.155  0.0534  0.0212  0.3765
    5HTM    C2228272   6.082   3.330   5.138  0.1616  0.0956  0.7894
    5HTM    C2328273   5.943   3.365   5.136  0.1810  0.1651  0.5493
    5HTM    C2428274   5.859   3.258   5.153  0.0877  0.1437 -0.0460
    5HTM     S328275   5.951   3.104   5.171 -0.0330  0.0333 -0.3523
    6TAL    C2528276   5.893   3.499   5.105 -0.0095 -0.2348 -0.7967
    6TAL    C2628277   5.986   3.614   5.061  0.7016 -0.0663 -0.3612
    6TAL    C2728278   5.921   3.733   5.001 -0.8854 -0.4880 -0.0812
    6TAL    C2828279   6.011   3.854   4.985  0.3829  0.8226 -0.4526
    6TAL    C2928280   5.931   3.975   4.934  0.3813  0.0488  0.1048
    6TAL    C3028281   5.998   4.108   4.924 -0.6402  0.7277 -0.2295
    7HTM    C3128282   5.719   3.248   5.162  0.2760  0.6492 -0.0564
    7HTM    C3228283   5.642   3.180   5.072  0.5209  0.9918 -0.5319
    7HTM    C3328284   5.501   3.199   5.091  0.4652  0.8103 -0.7606
    7HTM    C3428285   5.470   3.282   5.195  0.1773  0.3289 -0.4591
    7HTM     S428286   5.618   3.342   5.278 -0.0474  0.0656  0.1415
    8TAL    C3528287   5.392   3.136   4.996 -0.0120 -0.0393 -0.0444
    8TAL    C3628288   5.385   2.982   4.985 -0.0429 -0.6469  0.1085
    8TAL    C3728289   5.265   2.936   4.905  0.7053  0.1483  0.1229
    8TAL    C3828290   5.243   2.780   4.910  0.4495  0.0312 -0.7139
    8TAL    C3928291   5.091   2.737   4.914  0.3398 -0.4426  0.3445
    8TAL    C4028292   5.059   2.590   4.928 -0.0654 -0.3773  0.0253
    9HTM    C4128293   5.344   3.326   5.246 -0.0243 -0.2799 -0.0581
    9HTM    C4228294   5.271   3.255   5.337  0.0653 -0.0907  0.1616
    9HTM    C4328295   5.142   3.313   5.365  0.1590  0.0558  0.2909
    9HTM    C4428296   5.117   3.427   5.295  0.1411 -0.0211  0.1697
    9HTM     S528297   5.255   3.472   5.188  0.0031 -0.2874 -0.1197
   10TAL    C4528298   5.036   3.242   5.456  0.2571 -0.2116 -0.6006
   10TAL    C4628299   5.105   3.157   5.567  0.8858 -0.5750 -1.1074
   10TAL    C4728300   5.034   3.046   5.630  0.6683 -0.0708  0.0674
   10TAL    C4828301   5.118   2.989   5.751  0.0940 -0.7348  0.8312
   10TAL    C4928302   5.060   2.864   5.811 -0.3595 -0.0285  0.3766
   10TAL    C5028303   5.155   2.819   5.924 -0.3212  0.6302  0.4679
   11HTM    C5128304   5.003   3.518   5.300 -0.0749  0.1438 -0.3594
   11HTM    C5228305   5.021   3.652   5.287 -0.1605  0.1510 -0.4063
   11HTM    C5328306   4.902   3.729   5.310 -0.1185  0.1082 -0.0346
   11HTM    C5428307   4.793   3.654   5.340 -0.0008  0.0685  0.2955
   11HTM     S628308   4.832   3.478   5.342  0.0667  0.0820  0.1617
   12TAL    C5528309   4.913   3.880   5.311  0.6234  0.0482  0.2158
   12TAL    C5628310   5.028   3.960   5.370  0.1007 -0.3467  0.6129
   12TAL    C5728311   4.985   4.108   5.399 -0.7904  0.0696  0.4610
   12TAL    C5828312   4.898   4.187   5.299 -0.5232  0.5363  0.3396
   12TAL    C5928313   4.878   4.334   5.346  0.5488  0.4071  0.8067
   12TAL    C6028314   4.790   4.407   5.247 -0.1805 -0.2102 -0.1072
   13HTM    C6128315   4.657   3.690   5.364  0.5338 -0.0735  0.2640
   13HTM    C6228316   4.588   3.798   5.317  0.7823  0.0691  0.2246
   13HTM    C6328317   4.452   3.805   5.364  0.7138  0.2497  0.0021
   13HTM    C6428318   4.418   3.703   5.448  0.4131  0.2445 -0.1276
   13HTM     S728319   4.555   3.589   5.473  0.1912  0.0094  0.0218
   14TAL    C6528320   4.364   3.921   5.317 -0.0179  0.3419  0.0990
   14TAL    C6628321   4.402   3.978   5.179 -0.0687 -0.3557  0.1293
   14TAL    C6728322   4.364   4.116   5.126  0.4982 -0.0404 -0.0589
   14TAL    C6828323   4.413   4.237   5.207  0.6790 -0.0907  0.4108
   14TAL    C6928324   4.371   4.373   5.150  0.0608  0.1135 -0.8673
   14TAL    C7028325   4.220   4.414   5.167  0.7820  0.3833  0.4767
   15HTM    C7128326   4.297   3.673   5.528 -0.0006  0.1940  0.8896
   15HTM    C7228327   4.285   3.583   5.629 -0.0987  0.4145  1.0743
   15HTM    C7328328   4.155   3.584   5.692 -0.2851  0.2850  0.6938
   15HTM    C7428329   4.069   3.675   5.638 -0.3294 -0.0338  0.2195
   15HTM     S828330   4.145   3.767   5.503 -0.1371 -0.1968  0.2161
   16TAL    C7528331   4.130   3.487   5.802  0.5839  0.2567 -0.3931
   16TAL    C7628332   4.042   3.365   5.768 -0.1703  0.6257 -0.0263
   16TAL    C7728333   3.894   3.356   5.806 -0.2831 -0.4768 -0.3441
   16TAL    C7828334   3.856   3.389   5.953 -0.1897  0.6465  0.3298
   16TAL    C7928335   3.711   3.363   5.960  0.2671  0.4984  1.1232
   16TAL    C8028336   3.666   3.396   6.100  0.1303  0.2415 -0.8625
   17HTM    C8128337   3.932   3.708   5.675 -0.1452 -0.3049 -0.2555
   17HTM    C8228338   3.821   3.708   5.596 -0.2381  0.1539 -0.1328
   17HTM    C8328339   3.698   3.724   5.669 -0.0843  0.8039 -0.0114
   17HTM    C8428340   3.716   3.737   5.804  0.1259  0.8409 -0.0411
   17HTM     S928341   3.890   3.730   5.849  0.1462  0.0512 -0.2271
   18TAL    C8528342   3.566   3.722   5.593 -0.7930  0.2238 -1.0570
   18TAL    C8628343   3.537   3.602   5.510 -0.4298 -0.0916 -0.5883
   18TAL    C8728344   3.534   3.454   5.559  0.8091 -0.2632 -0.3269
   18TAL    C8828345   3.437   3.429   5.672  0.8853  0.4266  0.6091
   18TAL    C8928346   3.438   3.295   5.737 -0.3447  0.8132  0.0586
   18TAL    C9028347   3.332   3.288   5.836  0.5029  0.0569  0.0393
   19HTM    C9128348   3.611   3.751   5.906 -0.2574 -0.3676 -0.0769
   19HTM    C9228349   3.632   3.818   6.023 -0.1686 -0.1504 -0.2155
   19HTM    C9328350   3.517   3.820   6.110 -0.1754  0.2108 -0.2313
   19HTM    C9428351   3.409   3.755   6.059 -0.2695  0.2688 -0.1049
   19HTM    S1028352   3.443   3.686   5.896 -0.3577 -0.1312  0.0452
   20TAL    C9528353   3.515   3.884   6.241  0.3883  0.3256  0.1941
   20TAL    C9628354   3.478   4.034   6.253 -0.2874  0.3499 -0.4211
   20TAL    C9728355   3.545   4.120   6.360 -0.0429  0.1657 -0.3101
   20TAL    C9828356   3.702   4.117   6.361 -0.5300  0.7457 -0.4765
   20TAL    C9928357   3.777   4.157   6.239  0.0189 -0.1178 -0.1786
   20TAL   C10028358   3.825   4.305   6.228  0.1119 -0.5353  0.1453
   21HTM   C10128359   3.276   3.717   6.114 -0.0690 -0.2057 -0.3467
   21HTM   C10228360   3.210   3.599   6.097 -0.3921  0.0800 -1.1153
   21HTM   C10328361   3.073   3.603   6.143 -0.4208  0.1873 -1.2074
   21HTM   C10428362   3.036   3.723   6.195 -0.1196 -0.0167 -0.5090
   21HTM    S1128363   3.171   3.842   6.190  0.2264 -0.3625  0.3256
   22TAL   C10528364   2.997   3.473   6.139  0.0013  0.6608  1.0879
   22TAL   C10628365   2.954   3.433   5.997  0.2191 -0.2045  0.2627
   22TAL   C10728366   2.851   3.324   5.998 -0.3572 -0.5050  0.0618
   22TAL   C10828367   2.894   3.192   6.067 -0.0333  0.2942 -0.2033
   22TAL   C10928368   2.788   3.084   6.040 -0.2761  0.3817 -0.3907
   22TAL   C11028369   2.830   2.958   6.117 -0.3753  0.1288  0.2402
   23HTM   C11128370   2.903   3.766   6.236 -0.0074  0.1021  0.4462
   23HTM   C11228371   2.782   3.704   6.237  0.0266  0.0362  0.5608
   23HTM   C11328372   2.671   3.793   6.265 -0.0508  0.0837  0.1171
   23HTM   C11428373   2.709   3.922   6.286 -0.1438  0.1860 -0.3359
   23HTM    S1228374   2.887   3.942   6.272 -0.1407  0.2307 -0.2363
   24TAL   C11528375   2.531   3.734   6.264 -0.8576  0.7644  0.0028
   24TAL   C11628376   2.503   3.581   6.253 -0.4150  0.5282  0.1342
   24TAL   C11728377   2.519   3.500   6.386  0.5086 -0.9367 -0.2231
   24TAL   C11828378   2.495   3.352   6.400  0.2899  0.1415 -0.2661
   24TAL   C11928379   2.589   3.253   6.326 -0.9946 -0.4407  0.1767
   24TAL   C12028380   2.523   3.117   6.344 -0.1242 -0.6598 -0.1505
   25HTM   C12128381   2.626   4.043   6.289 -0.2229  0.0146  0.0553
   25HTM   C12228382   2.684   4.166   6.298 -0.0129 -0.1018  0.3090
   25HTM   C12328383   2.590   4.274   6.305  0.1707  0.0637  0.2420
   25HTM   C12428384   2.460   4.234   6.303  0.1009  0.3066 -0.0632
   25HTM    S1328385   2.446   4.055   6.290 -0.2048  0.3449 -0.2912
   26TAL   C12528386   2.635   4.415   6.330  0.6182 -0.4239 -0.1448
   26TAL   C12628387   2.777   4.447   6.381  0.2497 -0.2654 -0.0325
   26TAL   C12728388   2.810   4.421   6.525  0.3179  0.1755 -0.9148
   26TAL   C12828389   2.958   4.381   6.547 -0.1226  0.1837  0.8475
   26TAL   C12928390   2.989   4.237   6.511  0.0634 -0.4086  0.4229
   26TAL   C13028391   3.129   4.209   6.543 -0.1441  0.0409  0.2552
   27HTM   C13128392   2.334   4.312   6.291 -0.0907 -0.0290 -0.7344
   27HTM   C13228393   2.323   4.441   6.250 -0.0526 -0.0486 -0.8063
   27HTM   C13328394   2.187   4.488   6.240 -0.0287  0.0889 -0.5121
   27HTM   C13428395   2.095   4.394   6.273 -0.0486  0.2140 -0.2158
   27HTM    S1428396   2.172   4.238   6.321 -0.0994  0.1670 -0.2859
   28TAL   C13528397   2.149   4.634   6.204  0.2565 -0.0062  0.5732
   28TAL   C13628398   2.219   4.693   6.083 -0.0634  0.5590  0.1707
   28TAL   C13728399   2.137   4.801   6.033 -0.1090 -0.1712 -0.2818
   28TAL   C13828400   2.182   4.860   5.899  0.3456 -0.0814 -0.2772
   28TAL   C13928401   2.092   4.960   5.826 -0.4512 -0.1389 -0.1469
   28TAL   C14028402   2.149   5.002   5.694 -0.4472  0.2467 -0.1194
   29HTM   C14128403   1.950   4.388   6.258  0.0444  0.1689  0.7493
   29HTM   C14228404   1.874   4.277   6.278  0.0157  0.1035  0.2885
   29HTM   C14328405   1.732   4.302   6.273  0.0163 -0.0296 -0.6340
   29HTM   C14428406   1.700   4.432   6.250  0.0453 -0.0654 -0.8763
   29HTM    S1528407   1.847   4.534   6.232  0.0743  0.0668  0.0485
   30TAL   C14528408   1.629   4.189   6.308 -0.1826 -1.1658 -0.4640
   30TAL   C14628409   1.685   4.050   6.329 -0.4922  0.5750 -0.1976
   30TAL   C14728410   1.565   3.966   6.389  0.3282  0.0091  0.3001
   30TAL   C14828411   1.619   3.825   6.404  0.2987  0.3445  0.4229
   30TAL   C14928412   1.662   3.756   6.273  0.0770  0.4540  0.2617
   30TAL   C15028413   1.689   3.604   6.281 -0.1946 -0.3429 -0.8379
   31HTM   C15128414   1.577   4.503   6.219 -0.1031 -0.1380 -0.2363
   31HTM   C15228415   1.453   4.447   6.204  0.0284 -0.3052 -0.7124
   31HTM   C15328416   1.350   4.542   6.170 -0.0170 -0.4034 -0.8488
   31HTM   C15428417   1.396   4.670   6.158 -0.1830 -0.3110 -0.4773
   31HTM    S1628418   1.573   4.681   6.191 -0.2957 -0.0910  0.0785
   32TAL   C15528419   1.203   4.500   6.184  0.0827  0.0670 -0.3556
   32TAL   C15628420   1.167   4.357   6.219 -0.0852 -0.6892  0.0152
   32TAL   C15728421   1.190   4.308   6.361 -0.1300 -0.2695 -0.2265
   32TAL   C15828422   1.165   4.160   6.389  0.1030  0.7711 -0.3205
   32TAL   C15928423   1.021   4.115   6.375  0.2035 -0.0738  0.0566
   32TAL   C16028424   0.983   3.976   6.423 -0.5325  0.4053 -0.2350
   33HTM   C16128425   1.336   4.787   6.100 -0.2122  0.2768  0.1915
   33HTM   C16228426   1.405   4.905   6.097 -0.2726  0.3135  0.2334
   33HTM   C16328427   1.327   5.017   6.051 -0.2683  0.2470  0.0639
   33HTM   C16428428   1.198   4.984   6.019 -0.2044  0.1599 -0.1076
   33HTM    S1728429   1.166   4.809   6.045 -0.1443  0.1548 -0.0678
   34TAL   C16528430   1.406   5.150   6.058 -0.0831 -0.3905 -0.0403
   34TAL   C16628431   1.375   5.265   5.964  0.3227  0.3695 -0.0850
   34TAL   C16728432   1.481   5.373   5.976 -0.7136  0.8247  0.8565
   34TAL   C16828433   1.442   5.486   5.881 -0.7076  0.4665  0.1400
   34TAL   C16928434   1.530   5.613   5.895  0.0917  0.1594 -0.0552
   34TAL   C17028435   1.489   5.731   5.802 -0.0778  0.7887  0.6961
   35HTM   C17128436   1.089   5.074   5.994  0.2392  0.1510  0.0304
   35HTM   C17228437   1.065   5.203   6.030  0.0814  0.1111  0.0734
   35HTM   C17328438   0.935   5.251   5.993 -0.0371 -0.0868  0.2329
   35HTM   C17428439   0.859   5.158   5.928  0.0303 -0.1977  0.3115
   35HTM    S1828440   0.947   5.002   5.909  0.2504 -0.0594  0.1890
   36TAL   C17528441   0.887   5.385   6.045  0.2366 -0.4600  0.5848
   36TAL   C17628442   0.849   5.409   6.193 -1.0233 -0.1510  0.0472
   36TAL   C17728443   0.759   5.310   6.276  0.5086  0.0994  0.5309
   36TAL   C17828444   0.616   5.281   6.217  0.5787  0.8149  0.2339
   36TAL   C17928445   0.523   5.181   6.279 -0.1793  0.0659 -0.0449
   36TAL   C18028446   0.407   5.142   6.196  0.6445 -0.1506  0.0095
   37HTM   C18128447   0.723   5.172   5.870  0.3362  0.3913  0.1622
   37HTM   C18228448   0.647   5.070   5.822  0.5325  0.2332  0.1853
   37HTM   C18328449   0.515   5.111   5.779  0.4375 -0.0370  0.2167
   37HTM   C18428450   0.491   5.244   5.795  0.1686 -0.0852  0.2177
   37HTM    S1928451   0.634   5.329   5.866  0.0135  0.2093  0.1786
   38TAL   C18528452   0.421   5.002   5.739  0.5909  0.0144 -0.2292
   38TAL   C18628453   0.340   4.912   5.820 -0.7439  0.5504 -0.7065
   38TAL   C18728454   0.259   4.972   5.933 -0.4852  0.3214  0.0545
   38TAL   C18828455   0.169   4.869   6.011  0.2444  0.4559 -0.1045
   38TAL   C18928456   0.073   4.780   5.924 -1.1156  0.1735 -0.1890
   38TAL   C19028457   0.013   4.669   6.003 -0.2091 -0.2696  0.1305
   39HTM   C19128458   0.387   5.322   5.740 -0.1449  0.1671 -0.1663
   39HTM   C19228459   0.334   5.308   5.616 -0.5645 -0.3762  0.0713
   39HTM   C19328460   0.233   5.407   5.584 -0.7801 -0.6058  0.0367
   39HTM   C19428461   0.210   5.496   5.685 -0.5249 -0.2377 -0.2274
   39HTM    S2028462   0.315   5.462   5.828  0.0117  0.4324 -0.4542
   40TAL   C19528463   0.158   5.397   5.450 -0.6368  0.1201 -0.4954
   40TAL   C19628464   0.218   5.338   5.324  0.2491  0.2667 -0.2135
   40TAL   C19728465   0.244   5.187   5.332  0.0848 -0.8029  0.4185
   40TAL   C19828466   0.343   5.144   5.224  0.0909  0.1246  0.0606
   40TAL   C19928467   0.386   4.997   5.217  0.6490 -0.5807 -0.0120
   40TAL   C20028468   0.427   4.916   5.348 -0.0940  0.4888 -0.0230
   41HTM   C20128469   0.120   5.602   5.695  0.2795  0.1206  0.0206
   41HTM   C20228470   0.006   5.631   5.626  0.4258  0.0145 -0.2661
   41HTM   C20328471  -0.060   5.751   5.671  0.1974 -0.0508 -0.4251
   41HTM   C20428472   0.004   5.814   5.774 -0.1221  0.0053 -0.2602
   41HTM    S2128473   0.153   5.726   5.823 -0.1604  0.1461  0.1125
   42TAL   C20528474  -0.183   5.802   5.597  0.8345 -0.3940  0.3232
   42TAL   C20628475  -0.318   5.801   5.680 -0.8909 -1.0563 -0.4384
   42TAL   C20728476  -0.432   5.865   5.609  0.7145  0.2910  0.3514
   42TAL   C20828477  -0.562   5.896   5.676 -0.5119 -0.5836 -0.2737
   42TAL   C20928478  -0.658   5.967   5.585  0.0980 -0.2040 -0.4635
   42TAL   C21028479  -0.790   6.015   5.657 -0.0186 -0.0404  0.1518
   43HTM   C21128480  -0.029   5.945   5.830  0.1229  0.0065 -0.1961
   43HTM   C21228481  -0.129   5.969   5.920  0.0372 -0.2091 -0.2337
   43HTM   C21328482  -0.148   6.109   5.949 -0.2012 -0.2580 -0.1559
   43HTM   C21428483  -0.063   6.192   5.881 -0.2975 -0.0799 -0.0596
   43HTM    S2228484   0.049   6.098   5.775 -0.0925  0.1656 -0.0594
   44TAL   C21528485  -0.266   6.158   6.034  0.1689 -0.3407  0.5548
   44TAL   C21628486  -0.397   6.142   5.961 -0.5011  0.2129 -0.3090
   44TAL   C21728487  -0.512   6.169   6.052  0.2555  0.2194  0.3474
   44TAL   C21828488  -0.644   6.125   5.984 -0.6167 -0.4008 -0.3224
   44TAL   C21928489  -0.757   6.164   6.072 -0.0292  0.4911 -0.1436
   44TAL   C22028490  -0.890   6.185   5.997 -0.3807  0.1518 -0.0205
   45HTM   C22128491  -0.031   6.336   5.900  0.0577 -0.3703 -0.5815
   45HTM   C22228492  -0.075   6.422   5.996 -0.5417 -0.5088 -0.7267
   45HTM   C22328493  -0.003   6.547   6.000 -0.8073 -0.3645 -0.3452
   45HTM   C22428494   0.095   6.556   5.906 -0.4104 -0.1163  0.0910
   45HTM    S2328495   0.105   6.407   5.805  0.3348 -0.0446  0.0532
   46TAL   C22528496  -0.053   6.655   6.090 -0.6077 -0.4192 -0.3997
   46TAL   C22628497  -0.174   6.741   6.055 -0.0680  0.2418  0.5839
   46TAL   C22728498  -0.181   6.874   6.138  0.7687  0.1283  0.1847
   46TAL   C22828499  -0.079   6.981   6.135  0.6372 -0.7083  0.2149
   46TAL   C22928500  -0.090   7.100   6.040  0.3031 -0.0680 -0.3201
   46TAL   C23028501  -0.219   7.187   6.058  0.2282 -0.3807  0.1494
   47HTM   C23128502   0.192   6.662   5.896  0.3337 -0.1829 -0.0284
   47HTM   C23228503   0.328   6.652   5.900  0.3657  0.1547 -0.1931
   47HTM   C23328504   0.396   6.777   5.882  0.0322  0.3285 -0.2584
   47HTM   C23428505   0.313   6.883   5.864 -0.2542  0.1228 -0.1437
   47HTM    S2428506   0.140   6.832   5.869 -0.1238 -0.3094  0.0573
   48TAL   C23528507   0.548   6.774   5.879  0.1641 -0.1326  0.2994
   48TAL   C23628508   0.619   6.905   5.843  0.2114  0.6349 -0.4011
   48TAL   C23728509   0.765   6.886   5.812 -0.0066  0.7271 -0.7583
   48TAL   C23828510   0.833   7.014   5.774 -0.1635  0.7941  0.6529
   48TAL   C23928511   0.963   6.975   5.704  0.0640  0.7176 -0.3684
   48TAL   C24028512   1.041   7.093   5.676  0.0243 -0.7356  0.3219
    1HTM     C128513   0.192   2.287   7.619  0.0315  0.0404 -0.4366
    1HTM     C228514   0.244   2.178   7.556  0.0843  0.1624 -0.6044
    1HTM     C328515   0.353   2.209   7.466  0.0958  0.3477 -0.5264
    1HTM     C428516   0.383   2.342   7.461  0.0517  0.3669 -0.2991
    1HTM     S128517   0.276   2.439   7.570 -0.0082  0.1509 -0.1644
    2TAL     C528518   0.417   2.086   7.399  0.5386  0.6983 -0.9390
    2TAL     C628519   0.530   2.026   7.480  0.3955 -0.3912 -0.1346
    2TAL     C728520   0.567   1.881   7.468  0.1033 -0.2116  0.9801
    2TAL     C828521   0.704   1.847   7.507 -0.4668 -0.2496  0.0703
    2TAL     C928522   0.730   1.700   7.495 -0.1571  0.7392  0.1916
    2TAL    C1028523   0.747   1.630   7.357  0.0584 -0.4409  0.2870
    3HTM    C1128524   0.481   2.410   7.383 -0.2350 -0.0718 -0.3446
    3HTM    C1228525   0.581   2.354   7.309 -0.2143  0.0350 -0.3970
    3HTM    C1328526   0.667   2.451   7.246 -0.2489  0.1264 -0.3045
    3HTM    C1428527   0.633   2.580   7.272 -0.2960  0.0892 -0.1814
    3HTM     S228528   0.488   2.590   7.379 -0.3003 -0.0650 -0.1731
    4TAL    C1528529   0.777   2.407   7.152  0.0377  0.1728 -0.5488
    4TAL    C1628530   0.803   2.258   7.107 -0.2758 -0.3392  0.1519
    4TAL    C1728531   0.813   2.147   7.209  0.3882 -0.2008 -0.1947
    4TAL    C1828532   0.830   2.001   7.158  0.0511 -0.5011  0.2824
    4TAL    C1928533   0.963   1.967   7.080  0.1546  0.1514 -0.4276
    4TAL    C2028534   0.968   1.833   7.015  0.3106  0.2458  0.2511
    5HTM    C2128535   0.712   2.699   7.254  0.0398 -0.1529 -0.0114
    5HTM    C2228536   0.785   2.737   7.146  0.2206 -0.2389  0.0796
    5HTM    C2328537   0.870   2.851   7.170  0.0595 -0.1184  0.0873
    5HTM    C2428538   0.862   2.899   7.297 -0.2442  0.0596  0.0021
    5HTM     S328539   0.745   2.804   7.397 -0.3510  0.0891 -0.0950
    6TAL    C2528540   0.958   2.906   7.059  0.0132  0.1681  0.2241
    6TAL    C2628541   1.018   2.826   6.941  1.0239  0.7581 -0.4222
    6TAL    C2728542   1.120   2.713   6.982 -0.4114 -0.8632  0.7155
    6TAL    C2828543   1.160   2.628   6.859 -0.0989 -0.3050  0.1722
    6TAL    C2928544   1.241   2.505   6.886 -0.1682  0.0896  0.3927
    6TAL    C3028545   1.190   2.399   6.988  0.9034 -0.3865 -0.3569
    7HTM    C3128546   0.934   3.013   7.358 -0.1933  0.0200 -0.1722
    7HTM    C3228547   1.056   2.994   7.416 -0.0518 -0.2505 -0.5484
    7HTM    C3328548   1.133   3.115   7.429  0.1723 -0.3880 -0.6013
    7HTM    C3428549   1.071   3.226   7.381  0.2016 -0.2226 -0.2655
    7HTM     S428550   0.908   3.186   7.314 -0.0535  0.1226  0.1471
    8TAL    C3528551   1.283   3.115   7.470 -0.1661  0.0133 -0.4989
    8TAL    C3628552   1.374   2.995   7.460 -0.3169 -0.0124 -0.1513
    8TAL    C3728553   1.397   2.954   7.315  0.5303  0.0579  0.1069
    8TAL    C3828554   1.462   2.816   7.307  0.2663  0.7493 -0.2185
    8TAL    C3928555   1.469   2.756   7.168 -0.3084 -0.5123 -0.2231
    8TAL    C4028556   1.519   2.609   7.184 -0.0704 -0.0622  0.5953
    9HTM    C4128557   1.114   3.364   7.372  0.3462  0.0430 -0.1009
    9HTM    C4228558   1.115   3.442   7.260  0.5822 -0.0223 -0.1447
    9HTM    C4328559   1.184   3.567   7.278  0.7024 -0.0916 -0.1259
    9HTM    C4428560   1.236   3.584   7.403  0.5580 -0.0788 -0.0677
    9HTM     S528561   1.201   3.442   7.509  0.2568  0.0221 -0.0316
   10TAL    C4528562   1.182   3.672   7.168 -0.5442  0.1265  0.0156
   10TAL    C4628563   1.232   3.633   7.029 -0.2861  0.0806  0.0808
   10TAL    C4728564   1.173   3.508   6.959  0.2747 -0.1249  0.9650
   10TAL    C4828565   1.044   3.531   6.884  0.4853 -0.0046  0.3336
   10TAL    C4928566   0.969   3.404   6.848 -0.1869 -0.2350 -0.4621
   10TAL    C5028567   0.845   3.435   6.765  0.2152 -0.0480 -0.2066
   11HTM    C5128568   1.297   3.698   7.469  0.4297 -0.4054  0.1816
   11HTM    C5228569   1.406   3.768   7.427  0.7852 -0.8563  0.3462
   11HTM    C5328570   1.443   3.876   7.515  0.8581 -0.7627  0.2015
   11HTM    C5428571   1.362   3.888   7.625  0.5581 -0.2403 -0.0732
   11HTM     S628572   1.232   3.763   7.624  0.1573  0.1773 -0.1714
   12TAL    C5528573   1.559   3.975   7.483  0.8373 -0.0139  0.2140
   12TAL    C5628574   1.694   3.941   7.543 -0.6709  0.3713  0.1387
   12TAL    C5728575   1.763   3.823   7.472  0.3410  0.1842  0.3086
   12TAL    C5828576   1.900   3.807   7.542 -0.0603  0.1589  0.2609
   12TAL    C5928577   1.984   3.686   7.495  0.0717 -0.1279  0.5721
   12TAL    C6028578   2.111   3.677   7.576 -0.2020  0.3813 -0.4271
   13HTM    C6128579   1.355   3.983   7.736 -0.4274  0.2877  0.0755
   13HTM    C6228580   1.241   4.011   7.804 -0.3833  0.4504  0.0832
   13HTM    C6328581   1.255   4.117   7.901 -0.2348  0.4501  0.0613
   13HTM    C6428582   1.381   4.169   7.907 -0.1655  0.2871  0.0372
   13HTM     S728583   1.492   4.089   7.789 -0.2835  0.1203  0.0400
   14TAL    C6528584   1.131   4.174   7.971 -0.3683 -0.3938  0.1673
   14TAL    C6628585   1.023   4.083   8.018 -0.6715  1.0830 -0.5783
   14TAL    C6728586   0.919   4.153   8.103  0.8646  1.1934  0.2857
   14TAL    C6828587   0.958   4.158   8.250  0.1085 -0.1169  0.3077
   14TAL    C6928588   0.849   4.213   8.341  0.4808 -0.8437 -0.1408
   14TAL    C7028589   0.818   4.360   8.333  0.1219 -0.4285 -0.0777
   15HTM    C7128590   1.436   4.272   7.985  0.1438 -0.2592 -0.5326
   15HTM    C7228591   1.375   4.363   8.067 -0.4906 -0.6919 -0.5155
   15HTM    C7328592   1.467   4.454   8.130 -1.0655 -0.4559 -0.0138
   15HTM    C7428593   1.597   4.434   8.096 -0.8694  0.1567  0.3524
   15HTM     S828594   1.615   4.295   7.982  0.0638  0.4859  0.0896
   16TAL    C7528595   1.415   4.577   8.210  0.1390 -0.3935  0.1053
   16TAL    C7628596   1.266   4.595   8.248 -0.3260 -0.0970  0.3372
   16TAL    C7728597   1.249   4.732   8.323  0.7563  0.2904 -0.2870
   16TAL    C7828598   1.113   4.809   8.330  0.1704 -0.4380 -0.5911
   16TAL    C7928599   0.994   4.740   8.382  0.3764 -0.0913 -0.4829
   16TAL    C8028600   0.869   4.831   8.373 -0.0467  0.6103  0.1817
   17HTM    C8128601   1.722   4.500   8.130 -0.0164  0.1257 -0.0338
   17HTM    C8228602   1.843   4.465   8.079  0.0128  0.2015 -0.0172
   17HTM    C8328603   1.952   4.546   8.127 -0.0387  0.2434  0.0296
   17HTM    C8428604   1.914   4.643   8.214 -0.1072  0.1990  0.0490
   17HTM     S928605   1.736   4.640   8.244 -0.1120  0.1005  0.0093
   18TAL    C8528606   2.097   4.531   8.068  0.4204 -0.2747  0.0255
   18TAL    C8628607   2.203   4.427   8.117  0.0706  0.2629  0.0977
   18TAL    C8728608   2.200   4.387   8.264 -0.5257 -0.3604  0.2700
   18TAL    C8828609   2.331   4.332   8.316 -0.2041  0.6913  1.0587
   18TAL    C8928610   2.393   4.203   8.254  0.4253  0.3973  0.3744
   18TAL    C9028611   2.535   4.174   8.278 -0.3122 -0.6179 -0.0951
   19HTM    C9128612   1.991   4.746   8.272 -0.0455  0.0139 -0.1967
   19HTM    C9228613   1.956   4.877   8.287 -0.3639 -0.0536 -0.3529
   19HTM    C9328614   2.062   4.961   8.335 -0.6230  0.2277 -0.2656
   19HTM    C9428615   2.179   4.894   8.357 -0.5022  0.5097 -0.0436
   19HTM    S1028616   2.163   4.718   8.318 -0.0483  0.4413  0.0743
   20TAL    C9528617   2.044   5.112   8.345  0.5377  0.5024 -0.6189
   20TAL    C9628618   1.909   5.164   8.339 -0.3178  0.5000 -0.2007
   20TAL    C9728619   1.916   5.307   8.347  0.1564  0.1716  0.5684
   20TAL    C9828620   1.788   5.385   8.368 -0.2570 -0.1515 -0.2786
   20TAL    C9928621   1.694   5.351   8.483  0.0443  0.5997  0.1566
   20TAL   C10028622   1.579   5.445   8.502  0.9587  0.2739 -0.0179
   21HTM   C10128623   2.307   4.936   8.410 -0.0365  0.1142  0.1398
   21HTM   C10228624   2.412   4.851   8.425 -0.0354  0.1142  0.1307
   21HTM   C10328625   2.526   4.910   8.491 -0.0508  0.0973  0.1731
   21HTM   C10428626   2.507   5.040   8.526 -0.0638  0.0848  0.2139
   21HTM    S1128627   2.344   5.099   8.478 -0.0574  0.0930  0.2025
   22TAL   C10528628   2.651   4.825   8.496  0.1226 -0.3314 -0.0931
   22TAL   C10628629   2.703   4.793   8.358 -0.6219  0.2265  0.2722
   22TAL   C10728630   2.821   4.691   8.367  0.4642 -0.3188 -0.1354
   22TAL   C10828631   2.780   4.554   8.413  0.0885 -0.1187 -0.3368
   22TAL   C10928632   2.867   4.438   8.366  0.1657 -0.1381  0.0529
   22TAL   C11028633   2.847   4.399   8.227  0.1146 -0.8249 -0.2448
   23HTM   C11128634   2.599   5.137   8.601  0.1753 -0.0449  0.2083
   23HTM   C11228635   2.707   5.108   8.679 -0.0122  0.1712  0.5522
   23HTM   C11328636   2.768   5.223   8.740 -0.2990  0.3173  0.5603
   23HTM   C11428637   2.705   5.341   8.709 -0.3302  0.2127  0.2225
   23HTM    S1228638   2.565   5.314   8.599  0.0027 -0.0809 -0.1352
   24TAL   C11528639   2.875   5.192   8.845  0.0706 -0.5528 -0.0958
   24TAL   C11628640   2.884   5.055   8.911  0.4053  0.6594  0.1068
   24TAL   C11728641   2.974   5.045   9.038 -0.2037  0.1100 -0.4250
   24TAL   C11828642   3.125   5.063   9.018 -0.1438  0.0835 -0.7439
   24TAL   C11928643   3.206   4.980   9.118 -0.7718 -0.0226  0.4232
   24TAL   C12028644   3.350   4.987   9.064  0.3284  0.0096 -0.2679
   25HTM   C12128645   2.764   5.472   8.724 -0.5821  0.3326 -0.1923
   25HTM   C12228646   2.851   5.532   8.637 -0.5100  0.0675 -0.3033
   25HTM   C12328647   2.911   5.652   8.689  0.1130 -0.2489 -0.2856
   25HTM   C12428648   2.871   5.684   8.815  0.5163 -0.2251 -0.1608
   25HTM    S1328649   2.752   5.564   8.879  0.1372  0.2023 -0.0548
   26TAL   C12528650   2.996   5.754   8.612 -0.4484  0.2153  0.5709
   26TAL   C12628651   3.149   5.717   8.591  0.1455  0.0552  0.1232
   26TAL   C12728652   3.241   5.753   8.706 -0.0543  0.2288  0.3826
   26TAL   C12828653   3.389   5.716   8.696 -0.1362 -0.1956  0.8861
   26TAL   C12928654   3.473   5.690   8.824  0.0330  0.8162  0.6891
   26TAL   C13028655   3.612   5.642   8.779 -0.1350 -0.0069 -0.0541
   27HTM   C13128656   2.900   5.800   8.894  0.3196 -0.1996 -0.2665
   27HTM   C13228657   2.846   5.925   8.884  0.1086 -0.2744 -0.0710
   27HTM   C13328658   2.925   6.028   8.947 -0.1053 -0.2494  0.1602
   27HTM   C13428659   3.039   5.981   9.004 -0.0575 -0.1554  0.1408
   27HTM    S1428660   3.056   5.803   8.984  0.2641 -0.0905 -0.1734
   28TAL   C13528661   2.889   6.177   8.941 -0.1131  0.4273  0.0936
   28TAL   C13628662   2.885   6.239   8.803 -0.6568 -0.4678 -0.0012
   28TAL   C13728663   2.871   6.394   8.806  0.1159  0.1419 -0.0110
   28TAL   C13828664   2.975   6.490   8.869  0.2177  0.3384  0.9392
   28TAL   C13928665   2.928   6.640   8.854 -0.2561 -0.1282 -0.0372
   28TAL   C14028666   3.000   6.729   8.949  0.0139  0.5244  0.0791
   29HTM   C14128667   3.159   6.048   9.062 -0.0613  0.0039  0.5022
   29HTM   C14228668   3.176   6.179   9.094  0.0999 -0.0694  0.7215
   29HTM   C14328669   3.307   6.210   9.147  0.2155 -0.2761  0.5566
   29HTM   C14428670   3.389   6.101   9.155  0.1425 -0.3599  0.2116
   29HTM    S1528671   3.307   5.951   9.096 -0.0797 -0.1832  0.0670
   30TAL   C14528672   3.329   6.352   9.193  0.1950  0.1363  0.7613
   30TAL   C14628673   3.291   6.465   9.095  0.5081  0.2769  0.5266
   30TAL   C14728674   3.330   6.597   9.134 -0.2125 -0.0688 -0.0399
   30TAL   C14828675   3.484   6.623   9.125 -0.1873  0.5737  0.3198
   30TAL   C14928676   3.510   6.766   9.083  0.4150 -0.2794  0.4681
   30TAL   C15028677   3.660   6.792   9.082 -0.6000  0.4033  0.0626
   31HTM   C15128678   3.520   6.078   9.215  0.1062  0.0019 -0.2689
   31HTM   C15228679   3.589   5.961   9.217  0.3009  0.1147 -0.4173
   31HTM   C15328680   3.707   5.964   9.299  0.3910  0.2608 -0.5521
   31HTM   C15428681   3.728   6.084   9.360  0.2649  0.2595 -0.5065
   31HTM    S1628682   3.599   6.203   9.319  0.0210  0.0719 -0.2881
   32TAL   C15528683   3.807   5.851   9.322 -0.4837  0.0707 -0.3373
   32TAL   C15628684   3.807   5.739   9.223  0.0602  0.9764 -0.2416
   32TAL   C15728685   3.679   5.651   9.223 -0.4541  0.4996  0.5402
   32TAL   C15828686   3.698   5.517   9.154  0.1686 -0.8561 -0.1187
   32TAL   C15928687   3.574   5.437   9.184  0.6918  0.3227 -0.1519
   32TAL   C16028688   3.595   5.295   9.130  0.3897 -0.0806  0.3350
   33HTM   C16128689   3.819   6.136   9.466 -0.3957  0.3001 -0.3024
   33HTM   C16228690   3.949   6.111   9.496 -0.3707  0.2067 -0.4834
   33HTM   C16328691   3.997   6.185   9.610 -0.1864  0.1020 -0.4924
   33HTM   C16428692   3.903   6.266   9.667 -0.0709  0.1153 -0.3183
   33HTM    S1728693   3.745   6.255   9.580 -0.1867  0.2626 -0.1279
   34TAL   C16528694   4.140   6.164   9.656 -0.6150  0.4309 -0.6810
   34TAL   C16628695   4.229   6.045   9.623  0.1203  0.7508  0.6648
   34TAL   C16728696   4.370   6.085   9.650 -0.7565  0.0411  0.3403
   34TAL   C16828697   4.465   5.966   9.628 -0.0250  0.6695  0.1816
   34TAL   C16928698   4.604   6.017   9.660  0.1449  0.0369  0.0807
   34TAL   C17028699   4.717   5.910   9.646 -0.7296  0.1345  0.0901
   35HTM   C17128700   3.911   6.341   9.787 -0.0067 -0.3126  0.0218
   35HTM   C17228701   3.800   6.386   9.853 -0.0074 -0.1700 -0.0749
   35HTM   C17328702   3.831   6.464   9.971 -0.0089 -0.0305 -0.1664
   35HTM   C17428703   3.965   6.478   9.994 -0.0097 -0.0675 -0.1395
   35HTM    S1828704   4.063   6.394   9.868 -0.0081 -0.2825  0.0045
   36TAL   C17528705   3.709   6.516  10.047  0.3645  0.9617  0.1303
   36TAL   C17628706   3.601   6.604   9.975 -0.0358  0.8292  0.5440
   36TAL   C17728707   3.658   6.730   9.910 -0.2191  0.0300  0.2724
   36TAL   C17828708   3.550   6.841   9.890  0.1217 -0.6611  0.2522
   36TAL   C17928709   3.627   6.958   9.832  0.6246  0.8719 -0.4725
   36TAL   C18028710   3.546   7.089   9.827  0.6037  0.4409 -0.1901
   37HTM   C18128711   4.037   6.541  10.106 -0.2261  0.1297  0.1100
   37HTM   C18228712   3.991   6.588  10.226 -0.0364 -0.1082  0.2767
   37HTM   C18328713   4.093   6.651  10.306  0.1323 -0.4430  0.3265
   37HTM   C18428714   4.216   6.652  10.247  0.0712 -0.4604  0.1978
   37HTM    S1928715   4.213   6.573  10.085 -0.2062 -0.0519  0.0022
   38TAL   C18528716   4.069   6.690  10.457 -0.1589 -0.1663 -0.4621
   38TAL   C18628717   3.936   6.749  10.486 -0.1333  0.5138  0.2119
   38TAL   C18728718   3.907   6.883  10.416 -0.0808 -0.0792 -0.3175
   38TAL   C18828719   3.763   6.931  10.432 -0.2692  0.4501 -0.4839
   38TAL   C18928720   3.731   7.052  10.354  0.3844  0.0250  0.0419
   38TAL   C19028721   3.720   7.050  10.202 -0.3659 -0.1933  0.5510
   39HTM   C19128722   4.341   6.704  10.300  0.2816 -0.0548  0.0028
   39HTM   C19228723   4.365   6.832  10.340  0.4060 -0.0272 -0.1605
   39HTM   C19328724   4.503   6.858  10.372  0.4165 -0.1407 -0.1159
   39HTM   C19428725   4.584   6.749  10.357  0.3005 -0.2552  0.0812
   39HTM    S2028726   4.492   6.605  10.300  0.1674 -0.2277  0.2272
   40TAL   C19528727   4.549   6.997  10.427  0.5168  0.1036  0.5291
   40TAL   C19628728   4.559   7.117  10.332  0.0379  0.5731  0.2023
   40TAL   C19728729   4.448   7.152  10.236 -0.7091 -0.6504 -0.3144
   40TAL   C19828730   4.313   7.183  10.288  0.6155 -0.4028 -0.2252
   40TAL   C19928731   4.206   7.168  10.178 -0.4301 -0.5478  0.0508
   40TAL   C20028732   4.071   7.229  10.202  0.0504 -0.7039 -0.5132
   41HTM   C20128733   4.727   6.735  10.366 -0.3041 -0.0162 -0.1633
   41HTM   C20228734   4.820   6.810  10.432 -0.2806 -0.0105 -0.2031
   41HTM   C20328735   4.955   6.766  10.411 -0.2773  0.0699 -0.3582
   41HTM   C20428736   4.966   6.657  10.330 -0.2983  0.1257 -0.4364
   41HTM    S2128737   4.804   6.601  10.273 -0.3241  0.0804 -0.3194
   42TAL   C20528738   5.068   6.838  10.483 -0.0161  0.0852 -0.0925
   42TAL   C20628739   5.111   6.986  10.448 -0.9302  0.5128 -0.3302
   42TAL   C20728740   5.011   7.094  10.470  0.2551 -0.0034 -0.0364
   42TAL   C20828741   5.075   7.231  10.440 -0.1055  0.2688  0.0719
   42TAL   C20928742   4.976   7.347  10.441  0.4307  0.3632 -0.7215
   42TAL   C21028743   4.852   7.347  10.354 -0.1083 -0.1252 -0.5666
   43HTM   C21128744   5.073   6.580  10.280 -0.1785 -0.3461  0.5631
   43HTM   C21228745   5.205   6.613  10.273 -0.1822 -0.3133  0.6398
   43HTM   C21328746   5.286   6.514  10.207 -0.1647 -0.1619  0.4336
   43HTM   C21428747   5.215   6.406  10.164 -0.1474 -0.0793  0.1997
   43HTM    S2228748   5.040   6.421  10.203 -0.1518 -0.1870  0.2218
   44TAL   C21528749   5.433   6.546  10.183  0.0896 -0.0397 -0.3564
   44TAL   C21628750   5.464   6.673  10.107  0.1511  0.0183  0.3687
   44TAL   C21728751   5.451   6.805  10.176  0.4224 -0.0078 -0.1323
   44TAL   C21828752   5.503   6.920  10.078  1.0619  0.9018  0.0616
   44TAL   C21928753   5.501   7.056  10.133 -0.0326 -0.0110 -0.5462
   44TAL   C22028754   5.604   7.083  10.247 -0.6366 -0.0428  0.4104
   45HTM   C22128755   5.253   6.275  10.109 -0.2789  0.3995 -0.4329
   45HTM   C22228756   5.372   6.240  10.053 -0.3443  0.6173 -0.7111
   45HTM   C22328757   5.379   6.101  10.014 -0.1142  0.5798 -0.5449
   45HTM   C22428758   5.265   6.031  10.040  0.1271  0.3334 -0.1402
   45HTM    S2328759   5.139   6.136  10.117  0.0816  0.1278  0.0642
   46TAL   C22528760   5.496   6.043   9.945  0.4782  0.6482 -0.0224
   46TAL   C22628761   5.529   6.081   9.799  0.5944  0.7154 -0.2554
   46TAL   C22728762   5.649   6.020   9.726  0.0171  1.0941  0.1631
   46TAL   C22828763   5.658   5.868   9.721 -0.5619 -0.3479 -0.3688
   46TAL   C22928764   5.545   5.802   9.646 -0.2454 -0.4524  0.3657
   46TAL   C23028765   5.555   5.647   9.652 -0.3846  0.2798 -0.0571
   47HTM   C23128766   5.227   5.890  10.022 -0.2169  0.0867  0.6138
   47HTM   C23228767   5.297   5.782  10.070 -0.1667  0.0226  0.3973
   47HTM   C23328768   5.218   5.663  10.083 -0.0927 -0.0625  0.0843
   47HTM   C23428769   5.088   5.679  10.046 -0.0868 -0.0632  0.0622
   47HTM    S2428770   5.055   5.847   9.990 -0.1744  0.0441  0.4376
   48TAL   C23528771   5.284   5.529  10.132 -0.1807 -0.5654  0.1244
   48TAL   C23628772   5.219   5.392  10.127 -0.2104  0.3918  0.5523
   48TAL   C23728773   5.191   5.343   9.987 -0.4689 -0.2196 -0.9657
   48TAL   C23828774   5.137   5.207   9.978 -0.0532  0.6225  0.1614
   48TAL   C23928775   5.241   5.094   9.957 -0.2845 -0.3477  0.0072
   48TAL   C24028776   5.184   4.957   9.926 -0.1179 -0.1780  0.6482
    1HTM     C128777   4.979   8.945   3.799 -0.1716 -0.0810 -0.2637
    1HTM     C228778   4.987   8.812   3.824  0.0241  0.0348  0.3026
    1HTM     C328779   5.114   8.754   3.788  0.1481  0.0873  0.6499
    1HTM     C428780   5.202   8.844   3.735  0.0464  0.0118  0.3484
    1HTM     S128781   5.132   9.009   3.727 -0.2152 -0.1324 -0.4034
    2TAL     C528782   5.129   8.607   3.813 -0.4004 -0.5595  0.2318
    2TAL     C628783   5.051   8.521   3.714  0.2977  0.0348 -0.0660
    2TAL     C728784   5.047   8.376   3.760 -0.0236  0.5027 -0.4205
    2TAL     C828785   4.963   8.284   3.675 -0.3901  0.1538 -1.0406
    2TAL     C928786   4.813   8.319   3.667 -0.3603  0.2838  0.2433
    2TAL    C1028787   4.738   8.225   3.569 -0.2585  0.4589 -0.7141
    3HTM    C1128788   5.342   8.827   3.695 -0.3184 -0.3231  0.1278
    3HTM    C1228789   5.436   8.926   3.702 -0.4838 -0.1869  0.4302
    3HTM    C1328790   5.572   8.878   3.692 -0.3917  0.0439  0.5453
    3HTM    C1428791   5.581   8.742   3.676 -0.1559  0.0845  0.3306
    3HTM     S228792   5.418   8.665   3.673 -0.0311 -0.1684 -0.0362
    4TAL    C1528793   5.684   8.975   3.685 -0.0066  0.1038  0.0325
    4TAL    C1628794   5.652   9.116   3.620 -0.0150  0.0261 -0.0080
    4TAL    C1728795   5.592   9.132   3.481  0.3547  0.4716  0.5874
    4TAL    C1828796   5.609   9.262   3.402  0.4923  1.1037  0.3109
    4TAL    C1928797   5.740   9.330   3.396  0.4306 -0.1123  0.0082
    4TAL    C2028798   5.746   9.444   3.295 -0.0460  0.6523 -0.5311
    5HTM    C2128799   5.681   8.646   3.644 -0.3123 -0.4267 -0.0660
    5HTM    C2228800   5.664   8.520   3.596 -0.0517 -0.5827  0.2457
    5HTM    C2328801   5.786   8.456   3.555  0.0618 -0.3724  0.2575
    5HTM    C2428802   5.897   8.534   3.572 -0.1124 -0.0558 -0.0452
    5HTM     S328803   5.854   8.695   3.642 -0.4354  0.0007 -0.3711
    6TAL    C2528804   5.780   8.319   3.499 -0.2892 -0.0751  0.0950
    6TAL    C2628805   5.707   8.215   3.587  0.0288  0.2290  0.7112
    6TAL    C2728806   5.797   8.115   3.666 -0.3506  0.3327 -0.6454
    6TAL    C2828807   5.878   8.173   3.776 -0.2744 -0.2279  0.6807
    6TAL    C2928808   5.984   8.083   3.846 -0.5341 -0.1417  0.4621
    6TAL    C3028809   6.115   8.153   3.850 -0.3349  0.5650  0.5201
    7HTM    C3128810   6.041   8.518   3.551  0.1043  0.3510 -0.0742
    7HTM    C3228811   6.143   8.608   3.562  0.2046  0.2131  0.1385
    7HTM    C3328812   6.272   8.554   3.529  0.1822  0.0734  0.2795
    7HTM    C3428813   6.270   8.423   3.493  0.0650  0.1041  0.1743
    7HTM     S428814   6.102   8.356   3.498 -0.0269  0.3143 -0.1133
    8TAL    C3528815   6.397   8.641   3.536 -0.1157 -0.3567 -0.2304
    8TAL    C3628816   6.408   8.778   3.474 -0.2879  0.1521 -0.6698
    8TAL    C3728817   6.389   8.778   3.327 -0.3877  0.0307 -0.0192
    8TAL    C3828818   6.399   8.925   3.277  0.5187  0.2387  0.3013
    8TAL    C3928819   6.341   8.949   3.139 -0.2252 -0.0501  0.1262
    8TAL    C4028820   6.384   9.089   3.097 -0.2414 -0.3602  0.3455
    9HTM    C4128821   6.373   8.333   3.450 -0.1553  0.2172 -0.2009
    9HTM    C4228822   6.341   8.219   3.382 -0.1292  0.2007 -0.1867
    9HTM    C4328823   6.456   8.149   3.330 -0.1178  0.2589 -0.2410
    9HTM    C4428824   6.574   8.210   3.358 -0.1353  0.3196 -0.2963
    9HTM     S528825   6.551   8.361   3.453 -0.1673  0.3072 -0.2845
   10TAL    C4528826   6.449   8.007   3.266 -0.4205  0.2744 -0.5801
   10TAL    C4628827   6.345   7.912   3.328  0.7193  0.6624 -0.9165
   10TAL    C4728828   6.379   7.761   3.299 -0.2949  0.4646 -0.8533
   10TAL    C4828829   6.309   7.661   3.393  0.5187 -0.5809  0.1443
   10TAL    C4928830   6.333   7.520   3.369 -0.3697  0.0531  0.0114
   10TAL    C5028831   6.293   7.436   3.491 -0.4497  0.3230  0.5869
   11HTM    C5128832   6.707   8.171   3.312  0.5314  0.3138 -0.2725
   11HTM    C5228833   6.788   8.251   3.236  0.4723 -0.1540 -0.8374
   11HTM    C5328834   6.905   8.184   3.185  0.1128 -0.6351 -1.0335
   11HTM    C5428835   6.913   8.052   3.222 -0.1023 -0.5335 -0.6178
   11HTM     S628836   6.773   8.004   3.324  0.1345  0.1828  0.0585
   12TAL    C5528837   7.007   8.255   3.097 -0.2473  0.1947 -0.3477
   12TAL    C5628838   7.018   8.411   3.106 -0.2180 -0.2182 -0.1909
   12TAL    C5728839   7.122   8.476   3.018 -0.0600  0.5060 -0.3396
   12TAL    C5828840   7.091   8.622   2.994  0.0429  0.2038 -0.3511
   12TAL    C5928841   7.218   8.681   2.937  0.6227  0.6897 -0.2526
   12TAL    C6028842   7.199   8.830   2.914 -0.5746 -0.0165 -0.0822
   13HTM    C6128843   7.011   7.949   3.189 -0.1116  0.1031 -0.4227
   13HTM    C6228844   6.992   7.816   3.166  0.0634  0.0284 -0.1400
   13HTM    C6328845   7.113   7.746   3.130  0.1953  0.0651  0.2255
   13HTM    C6428846   7.223   7.825   3.126  0.1215  0.1684  0.2215
   13HTM     S728847   7.184   7.996   3.167 -0.1227  0.2269 -0.2481
   14TAL    C6528848   7.113   7.599   3.072  0.4679 -0.0546  0.0143
   14TAL    C6628849   6.980   7.523   3.076  0.7371  0.4117 -0.4518
   14TAL    C6728850   6.973   7.379   3.031  0.1599  0.5063  0.3152
   14TAL    C6828851   6.838   7.316   3.058 -0.2439  0.8282 -0.4339
   14TAL    C6928852   6.842   7.174   3.005 -0.0172 -0.6806  0.4481
   14TAL    C7028853   6.713   7.105   3.030  0.1279 -0.3322  0.6141
   15HTM    C7128854   7.366   7.795   3.092 -0.2711 -0.0532 -0.1366
   15HTM    C7228855   7.432   7.676   3.102 -0.4356 -0.1485 -0.1925
   15HTM    C7328856   7.568   7.681   3.056 -0.3140 -0.2236  0.1581
   15HTM    C7428857   7.607   7.804   3.011 -0.0569 -0.1855  0.4814
   15HTM     S828858   7.472   7.924   3.024  0.0524 -0.0508  0.3671
   16TAL    C7528859   7.655   7.561   3.055  0.2174  0.3881 -0.5723
   16TAL    C7628860   7.617   7.451   2.960  0.7700 -0.3025  0.4502
   16TAL    C7728861   7.725   7.347   2.945  0.7307  0.4991  0.3679
   16TAL    C7828862   7.681   7.227   2.845 -0.7146  0.3128 -0.6562
   16TAL    C7928863   7.671   7.251   2.701  0.4984  0.2613  0.3194
   16TAL    C8028864   7.652   7.124   2.620  0.9483 -0.2597 -0.2527
   17HTM    C8128865   7.738   7.861   2.967 -0.1351 -0.2988  0.1053
   17HTM    C8228866   7.760   7.991   2.934 -0.4606 -0.2446  0.1047
   17HTM    C8328867   7.892   8.017   2.883 -0.5620  0.0634 -0.0062
   17HTM    C8428868   7.971   7.906   2.878 -0.3140  0.2444 -0.0901
   17HTM     S928869   7.884   7.760   2.937  0.0695  0.0376 -0.0353
   18TAL    C8528870   7.938   8.157   2.841  0.3936 -0.1686 -0.3469
   18TAL    C8628871   7.841   8.273   2.855  0.4159 -0.2442  0.1843
   18TAL    C8728872   7.836   8.331   2.993  0.9040  0.3741 -0.3289
   18TAL    C8828873   7.923   8.452   3.008 -0.2482 -0.2178 -0.2011
   18TAL    C8928874   7.915   8.539   3.130  0.0523 -0.1158 -1.1642
   18TAL    C9028875   7.986   8.665   3.108  0.2641 -0.8886  0.0972
   19HTM    C9128876   8.111   7.882   2.843  0.0201  0.1095 -0.2100
   19HTM    C9228877   8.169   7.760   2.821 -0.0739  0.0720 -0.2557
   19HTM    C9328878   8.310   7.769   2.790 -0.0701 -0.0257 -0.2619
   19HTM    C9428879   8.358   7.896   2.789  0.0276 -0.0630 -0.2210
   19HTM    S1028880   8.229   8.016   2.827  0.1233  0.0236 -0.1712
   20TAL    C9528881   8.406   7.648   2.775 -0.4944 -0.0813  0.2949
   20TAL    C9628882   8.399   7.575   2.644 -0.2612 -0.0094  0.0772
   20TAL    C9728883   8.514   7.475   2.634  0.1883 -0.3676  0.1381
   20TAL    C9828884   8.516   7.381   2.518 -0.4932 -0.0366 -0.1034
   20TAL    C9928885   8.615   7.265   2.541 -0.4283 -0.1579 -0.3585
   20TAL   C10028886   8.593   7.144   2.452 -0.1900 -0.0838  0.5877
   21HTM   C10128887   8.490   7.958   2.774  0.0865  0.1750 -0.1378
   21HTM   C10228888   8.595   7.924   2.695  0.0415  0.0820 -0.1588
   21HTM   C10328889   8.700   8.023   2.693  0.2599 -0.1464  0.0522
   21HTM   C10428890   8.675   8.131   2.772  0.4705 -0.2257  0.2342
   21HTM    S1128891   8.515   8.118   2.854  0.4103 -0.0190  0.1525
   22TAL   C10528892   8.819   7.994   2.603 -0.4644 -0.0447  0.2555
   22TAL   C10628893   8.934   8.090   2.603 -0.2904  0.1043 -0.1713
   22TAL   C10728894   9.053   8.061   2.505 -0.3249 -0.2435 -0.1744
   22TAL   C10828895   9.112   7.924   2.526 -0.5971  0.1823  0.3778
   22TAL   C10928896   9.234   7.883   2.443  0.1793 -0.1907 -0.1614
   22TAL   C11028897   9.367   7.947   2.493  0.0150 -0.2186 -0.3529
   23HTM   C11128898   8.742   8.260   2.798  0.2240 -0.0600 -0.3125
   23HTM   C11228899   8.815   8.285   2.911 -0.3982 -0.1969  0.1271
   23HTM   C11328900   8.821   8.424   2.946 -1.0166 -0.2909  0.6278
   23HTM   C11428901   8.753   8.506   2.860 -0.8670 -0.2254  0.5698
   23HTM    S1228902   8.675   8.412   2.728  0.0741 -0.0391 -0.1268
   24TAL   C11528903   8.910   8.478   3.066 -0.3764  0.4368 -0.1553
   24TAL   C11628904   8.987   8.376   3.156  0.3203  0.0396  0.0429
   24TAL   C11728905   9.057   8.433   3.274 -0.0873 -0.2325  0.0383
   24TAL   C11828906   9.127   8.566   3.271 -0.3055 -0.5969  0.7397
   24TAL   C11928907   9.177   8.591   3.405  0.0523 -0.4122  0.8294
   24TAL   C12028908   9.216   8.740   3.449  0.2280 -0.5450  0.1217
   25HTM   C12128909   8.734   8.647   2.871  0.2120 -0.0111 -0.0889
   25HTM   C12228910   8.612   8.706   2.891  0.1087 -0.2351 -0.0554
   25HTM   C12328911   8.609   8.845   2.855 -0.1149 -0.2012  0.0954
   25HTM   C12428912   8.728   8.893   2.808 -0.1818  0.0477  0.1772
   25HTM    S1328913   8.854   8.764   2.806  0.0333  0.2616  0.0691
   26TAL   C12528914   8.481   8.925   2.871 -0.2296  0.3798 -0.3854
   26TAL   C12628915   8.419   8.913   3.008  0.0869 -0.2526  0.4398
   26TAL   C12728916   8.302   9.014   3.029 -0.5030 -0.0589 -0.2261
   26TAL   C12828917   8.242   9.022   3.175 -0.2383 -0.5466  0.1282
   26TAL   C12928918   8.139   9.141   3.186  0.3829  0.4153 -0.0091
   26TAL   C13028919   8.100   9.161   3.335 -0.7639  0.4194 -0.5614
   27HTM   C13128920   8.771   9.015   2.747  0.3302 -0.3959  0.0748
   27HTM   C13228921   8.867   9.028   2.650  0.0668 -0.1694 -0.1568
   27HTM   C13328922   8.895   9.165   2.615 -0.3228 -0.1012 -0.2056
   27HTM   C13428923   8.821   9.256   2.684 -0.3561 -0.2757 -0.0117
   27HTM    S1428924   8.709   9.175   2.801  0.1046 -0.5417  0.2499
   28TAL   C13528925   9.007   9.201   2.513  0.3163 -1.1713  0.8952
   28TAL   C13628926   9.087   9.091   2.443  0.3632  0.3387 -0.3631
   28TAL   C13728927   9.067   9.088   2.291 -0.3835  0.6324  0.3498
   28TAL   C13828928   9.069   8.946   2.216  0.1808 -0.0179 -0.3453
   28TAL   C13928929   8.971   8.833   2.259  0.4715  0.5001  0.0755
   28TAL   C14028930   8.828   8.860   2.290  0.4351 -0.1068  0.2610
   29HTM   C14128931   8.818   9.404   2.679 -0.0068 -0.3173 -0.4955
   29HTM   C14228932   8.708   9.485   2.673  0.0138 -0.2086  0.4244
   29HTM   C14328933   8.740   9.625   2.668  0.0787 -0.1980  1.1208
   29HTM   C14428934   8.874   9.651   2.671  0.1072 -0.2986  0.7316
   29HTM    S1528935   8.971   9.499   2.680  0.0543 -0.4154 -0.5543
   30TAL   C14528936   8.628   9.723   2.650  0.2875 -0.4264 -0.3389
   30TAL   C14628937   8.546   9.742   2.775  0.1899  0.2191  0.3465
   30TAL   C14728938   8.417   9.823   2.741 -0.3001  0.1490  0.5010
   30TAL   C14828939   8.310   9.828   2.852 -0.0217  0.2040 -0.7330
   30TAL   C14928940   8.265   9.688   2.898 -0.1825  0.5144  0.4571
   30TAL   C15028941   8.166   9.689   3.012 -0.1210 -0.2732 -0.5391
   31HTM   C15128942   8.948   9.776   2.672  0.1501  0.1545  0.2512
   31HTM   C15228943   9.078   9.791   2.710  0.2136  0.2966 -0.0267
   31HTM   C15328944   9.117   9.929   2.728  0.1888  0.3566 -0.4121
   31HTM   C15428945   9.017  10.018   2.705  0.1072  0.2605 -0.4280
   31HTM    S1628946   8.864   9.934   2.658  0.0541  0.0851  0.0461
   32TAL   C15528947   9.251   9.970   2.789  0.0553 -0.2048  1.0887
   32TAL   C15628948   9.344   9.862   2.834  0.2973  0.4494  0.1203
   32TAL   C15728949   9.470   9.914   2.897  0.1728  0.3210  0.3285
   32TAL   C15828950   9.550   9.793   2.927 -0.4252 -0.3307 -0.0590
   32TAL   C15928951   9.681   9.846   2.989 -0.3576  0.8810 -1.0480
   32TAL   C16028952   9.794   9.749   2.956 -0.2766 -0.2529 -0.7503
   33HTM   C16128953   9.021  10.163   2.698  0.0755  0.2001 -0.1106
   33HTM   C16228954   8.907  10.238   2.698  0.2437  0.4576 -0.2754
   33HTM   C16328955   8.931  10.380   2.696  0.5655  0.4030 -0.4320
   33HTM   C16428956   9.063  10.413   2.695  0.6427  0.1038 -0.3868
   33HTM    S1728957   9.168  10.267   2.697  0.3123 -0.1341 -0.1407
   34TAL   C16528958   8.819  10.481   2.699 -0.0162 -0.0384  0.3288
   34TAL   C16628959   8.673  10.447   2.660 -0.4427  0.3273 -0.3073
   34TAL   C16728960   8.589  10.360   2.759 -0.1497  0.2420  0.7163
   34TAL   C16828961   8.457  10.313   2.702  0.6790  1.1971  0.1642
   34TAL   C16928962   8.344  10.276   2.798  0.0111  0.7336 -0.6282
   34TAL   C17028963   8.366  10.180   2.918 -0.3051  0.1910  0.1759
   35HTM   C17128964   9.129  10.540   2.710  0.2304  0.5562  0.0354
   35HTM   C17228965   9.107  10.658   2.645  0.2878  0.7460  0.3545
   35HTM   C17328966   9.203  10.760   2.674  0.4687  0.5461  0.4579
   35HTM   C17428967   9.300  10.721   2.762  0.5493  0.2038  0.2179
   35HTM    S1828968   9.276  10.550   2.815  0.4018  0.1067 -0.1606
   36TAL   C17528969   9.192  10.903   2.621  0.5652 -0.0798  0.0310
   36TAL   C17628970   9.175  10.936   2.478  0.0307 -0.1146  0.1199
   36TAL   C17728971   9.229  10.839   2.372 -0.6253  0.3811  0.4319
   36TAL   C17828972   9.175  10.866   2.233  0.1289 -0.0085  0.5609
   36TAL   C17928973   9.235  10.766   2.129  0.0454  0.8199 -0.2611
   36TAL   C18028974   9.203  10.822   1.999  0.7136 -0.4224  0.1257
   37HTM   C18128975   9.422  10.781   2.817  0.1401 -0.5188 -0.4097
   37HTM   C18228976   9.512  10.714   2.894  0.1020 -0.2913 -0.1689
   37HTM   C18328977   9.627  10.793   2.929 -0.1141 -0.0515  0.0080
   37HTM   C18428978   9.625  10.920   2.879 -0.2408 -0.0959 -0.0980
   37HTM    S1928979   9.476  10.949   2.782 -0.0959 -0.4471 -0.4320
   38TAL   C18528980   9.749  10.737   3.013  0.1658 -0.3257  0.2929
   38TAL   C18628981   9.748  10.598   3.094  0.0271  0.9361  0.2030
   38TAL   C18728982   9.678  10.482   3.028  0.1328 -0.2296 -0.1657
   38TAL   C18828983   9.668  10.373   3.135  0.2488  0.0349  0.3465
   38TAL   C18928984   9.582  10.246   3.094  0.5778 -0.0329 -0.3574
   38TAL   C19028985   9.441  10.268   3.033  0.1395  0.0931 -0.4252
   39HTM   C19128986   9.723  11.025   2.903  0.0299  0.2841  0.3274
   39HTM   C19228987   9.801  11.051   3.011  0.2013  0.0999  0.2478
   39HTM   C19328988   9.880  11.171   2.997  0.6677 -0.2226  0.0597
   39HTM   C19428989   9.861  11.237   2.879  0.8519 -0.2840 -0.0041
   39HTM    S2028990   9.741  11.151   2.775  0.4474  0.0631  0.1696
   40TAL   C19528991   9.969  11.218   3.108 -0.1649 -0.3949  0.1887
   40TAL   C19628992  10.066  11.116   3.167 -0.2969  0.2330 -0.2346
   40TAL   C19728993  10.175  11.061   3.076 -0.3994  0.3707  0.2616
   40TAL   C19828994  10.275  11.164   3.017  0.4112  0.4744  0.2659
   40TAL   C19928995  10.357  11.237   3.122 -0.5064 -0.8938 -0.8235
   40TAL   C20028996  10.463  11.317   3.049  0.1652  0.0476  0.4093
   41HTM   C20128997   9.927  11.357   2.818 -0.3928  0.0822 -0.0344
   41HTM   C20228998   9.889  11.421   2.704 -0.3510  0.2236  0.0305
   41HTM   C20328999   9.972  11.534   2.670 -0.1371  0.0651  0.0224
   41HTM   C20429000  10.073  11.556   2.759 -0.0157 -0.1973 -0.0488
   41HTM    S2129001  10.071  11.435   2.893 -0.1634 -0.2652 -0.1113
   42TAL   C20529002   9.945  11.618   2.543  0.7396  0.3724 -0.3651
   42TAL   C20629003   9.810  11.603   2.472  1.0290 -0.1268  0.0480
   42TAL   C20729004   9.689  11.668   2.541  0.6680 -0.3854 -0.1050
   42TAL   C20829005   9.641  11.807   2.521 -0.5508  0.2068 -0.5655
   42TAL   C20929006   9.720  11.918   2.588  0.0866  0.6130  0.5088
   42TAL   C21029007   9.727  11.915   2.743  0.4642 -0.5510  0.2295
   43HTM   C21129008  10.182  11.651   2.762  0.1302 -0.4669 -0.4362
   43HTM   C21229009  10.192  11.785   2.740  0.0724 -0.4841 -0.5693
   43HTM   C21329010  10.327  11.836   2.751 -0.0026 -0.3504 -0.2432
   43HTM   C21429011  10.419  11.740   2.781 -0.0021 -0.2308  0.1386
   43HTM    S2229012  10.343  11.577   2.798  0.0940 -0.2784  0.1156
   44TAL   C21529013  10.359  11.982   2.711  0.2133  0.3491  0.2259
   44TAL   C21629014  10.262  12.091   2.768  0.1618 -0.2065 -0.1007
   44TAL   C21729015  10.308  12.233   2.769  0.4200 -0.2133 -0.2793
   44TAL   C21829016  10.448  12.262   2.823 -0.0004  0.0040 -0.6935
   44TAL   C21929017  10.509  12.396   2.815 -0.1023  0.1078  0.1398
   44TAL   C22029018  10.462  12.501   2.906  0.2792  0.3213 -0.4406
   45HTM   C22129019  10.562  11.736   2.804 -0.4242  0.5338 -0.4045
   45HTM   C22229020  10.642  11.627   2.820 -0.9279  0.2003 -0.1376
   45HTM   C22329021  10.782  11.659   2.830 -0.8128 -0.3920  0.1806
   45HTM   C22429022  10.809  11.792   2.821 -0.2211 -0.5099  0.1562
   45HTM    S2329023  10.659  11.889   2.800  0.2398  0.1228 -0.2737
   46TAL   C22529024  10.884  11.537   2.835  0.5137  0.0198  0.4023
   46TAL   C22629025  10.885  11.446   2.959 -0.3834  0.2607 -0.2344
   46TAL   C22729026  10.917  11.514   3.087  0.1263 -0.0064 -0.0280
   46TAL   C22829027  10.913  11.418   3.201 -0.5249 -0.3427 -1.0409
   46TAL   C22929028  10.910  11.487   3.329 -0.4399 -0.1161 -0.7142
   46TAL   C23029029  11.034  11.556   3.378  0.3877  0.3729 -0.4244
   47HTM   C23129030  10.936  11.868   2.830  0.3961 -0.1113 -0.1619
   47HTM   C23229031  11.041  11.848   2.914  0.3914  0.0104 -0.1268
   47HTM   C23329032  11.144  11.949   2.903  0.1794  0.2463  0.0610
   47HTM   C23429033  11.116  12.046   2.811  0.0226  0.3047  0.1693
   47HTM    S2429034  10.957  12.017   2.731  0.1313  0.0641  0.0413
   48TAL   C23529035  11.278  11.951   2.976  0.0727  0.0558 -0.3433
   48TAL   C23629036  11.325  11.830   3.060  0.5502 -0.0032  0.5442
   48TAL   C23729037  11.434  11.870   3.161  0.8375 -0.0666  0.6946
   48TAL   C23829038  11.450  11.775   3.282  0.1646 -0.5001  0.2673
   48TAL   C23929039  11.572  11.798   3.370  0.1514  0.5404  0.1396
   48TAL   C24029040  11.566  11.703   3.489 -0.1409 -0.4329  0.0911
    1HTM     C129041   6.150   6.879   1.667 -0.0915 -0.1094  0.4140
    1HTM     C229042   6.019   6.903   1.640 -0.0682  0.0179  0.4144
    1HTM     C329043   5.933   6.790   1.664 -0.1574  0.0548  0.2710
    1HTM     C429044   5.999   6.679   1.709 -0.2485 -0.0445  0.1614
    1HTM     S129045   6.176   6.710   1.725 -0.2287 -0.1938  0.2311
    2TAL     C529046   5.784   6.792   1.625 -0.8257 -0.3988 -0.7280
    2TAL     C629047   5.704   6.922   1.601  0.3472 -0.1786 -0.4778
    2TAL     C729048   5.716   7.031   1.708  0.1728 -0.5762  0.0714
    2TAL     C829049   5.621   7.160   1.690 -0.6702  0.3206  0.2757
    2TAL     C929050   5.469   7.140   1.675  0.0988  0.5502 -1.0022
    2TAL    C1029051   5.378   7.262   1.686 -0.1429 -0.4748 -0.4389
    3HTM    C1129052   5.966   6.541   1.744 -0.4505  0.3808 -0.1545
    3HTM    C1229053   6.046   6.432   1.763 -0.2823  0.5245 -0.0404
    3HTM    C1329054   5.974   6.311   1.791 -0.0956  0.4389  0.0712
    3HTM    C1429055   5.839   6.327   1.794 -0.1209  0.2295  0.0422
    3HTM     S229056   5.792   6.498   1.760 -0.3854  0.1240 -0.1296
    4TAL    C1529057   6.053   6.187   1.837 -1.0343  0.7226  0.1232
    4TAL    C1629058   6.135   6.118   1.725 -0.1979  0.5716  0.1304
    4TAL    C1729059   6.200   5.980   1.756 -0.7550  0.0839  0.1310
    4TAL    C1829060   6.132   5.844   1.725  0.1284 -0.0848  0.0519
    4TAL    C1929061   6.073   5.853   1.580  1.0192 -0.1156  0.1767
    4TAL    C2029062   5.986   5.742   1.543  0.1335 -0.1401 -0.5652
    5HTM    C2129063   5.734   6.223   1.797 -0.3661 -0.1585  0.5512
    5HTM    C2229064   5.604   6.246   1.827 -0.3669 -0.4120  0.7449
    5HTM    C2329065   5.518   6.132   1.807 -0.2580 -0.4354  0.3998
    5HTM    C2429066   5.584   6.022   1.762 -0.1743 -0.2001 -0.0570
    5HTM     S329067   5.760   6.054   1.740 -0.2269  0.0712 -0.0870
    6TAL    C2529068   5.366   6.133   1.820 -0.7853  0.4244  0.5991
    6TAL    C2629069   5.302   6.103   1.957  0.8522 -0.7013 -0.7437
    6TAL    C2729070   5.151   6.094   1.960  0.3139  0.2900 -0.1451
    6TAL    C2829071   5.080   5.981   1.892 -0.6654  0.7733 -0.4817
    6TAL    C2929072   5.104   5.858   1.984 -0.3457 -0.4617  0.0682
    6TAL    C3029073   5.001   5.744   1.956  0.0916 -0.3153  0.2644
    7HTM    C3129074   5.547   5.888   1.730 -0.0071 -0.1920  0.2900
    7HTM    C3229075   5.634   5.801   1.670 -0.1760 -0.3772  0.3127
    7HTM    C3329076   5.573   5.677   1.630 -0.4022 -0.3002  0.4144
    7HTM    C3429077   5.440   5.669   1.659 -0.4052 -0.0564  0.4691
    7HTM     S429078   5.381   5.819   1.739 -0.1210  0.0961  0.3960
    8TAL    C3529079   5.672   5.570   1.570 -0.1386  0.6184 -0.2562
    8TAL    C3629080   5.639   5.525   1.434  0.1005  0.3762  0.2273
    8TAL    C3729081   5.718   5.416   1.360 -0.0495 -0.0540  0.4275
    8TAL    C3829082   5.628   5.382   1.245 -0.5188  0.3439  0.4424
    8TAL    C3929083   5.671   5.254   1.179  0.2322 -0.7849  0.5633
    8TAL    C4029084   5.592   5.220   1.063  0.2112 -0.6885 -0.3980
    9HTM    C4129085   5.343   5.563   1.638 -0.0391  0.1064  0.1280
    9HTM    C4229086   5.246   5.532   1.729 -0.1693  0.0370 -0.0343
    9HTM    C4329087   5.157   5.428   1.685 -0.1519  0.1214 -0.2726
    9HTM    C4429088   5.186   5.379   1.561 -0.0084  0.2555 -0.2923
    9HTM     S529089   5.329   5.462   1.489  0.1167  0.2852 -0.0089
   10TAL    C4529090   5.050   5.374   1.780  0.3027 -0.6137 -0.4575
   10TAL    C4629091   5.082   5.304   1.916 -0.4404  0.1058  0.1618
   10TAL    C4729092   5.170   5.177   1.922  0.1664  0.3996 -0.9869
   10TAL    C4829093   5.109   5.066   1.839 -0.1699 -0.0592 -0.7846
   10TAL    C4929094   5.164   4.922   1.837 -0.1486 -0.1401  0.3998
   10TAL    C5029095   5.077   4.844   1.740  0.5220  0.6007  0.7086
   11HTM    C5129096   5.148   5.261   1.488 -0.0023  0.1389  0.2067
   11HTM    C5229097   5.033   5.231   1.421 -0.0527  0.4616  0.1481
   11HTM    C5329098   5.037   5.105   1.351 -0.3660  0.4523  0.1433
   11HTM    C5429099   5.155   5.039   1.365 -0.5550  0.1232  0.1982
   11HTM     S629100   5.271   5.131   1.467 -0.3499 -0.2038  0.2608
   12TAL    C5529101   4.925   5.044   1.262  0.2735  0.7695  0.2435
   12TAL    C5629102   4.777   5.060   1.297  0.4066  0.1936 -0.4719
   12TAL    C5729103   4.727   4.990   1.422 -0.0518 -0.1978  0.2339
   12TAL    C5829104   4.705   4.841   1.428 -0.6981  1.0011  0.2610
   12TAL    C5929105   4.824   4.748   1.451  0.6135 -0.2399 -0.3267
   12TAL    C6029106   4.784   4.604   1.450  0.5557 -0.6044  0.1324
   13HTM    C6129107   5.223   4.923   1.302  0.1410  0.2342 -0.0799
   13HTM    C6229108   5.184   4.793   1.293 -0.3269  0.3893 -0.3061
   13HTM    C6329109   5.284   4.706   1.236 -0.6089  0.1144 -0.3842
   13HTM    C6429110   5.399   4.770   1.202 -0.3559 -0.2498 -0.2178
   13HTM     S729111   5.391   4.946   1.239  0.2629 -0.2744  0.0528
   14TAL    C6529112   5.267   4.558   1.234  0.2377  0.0876 -0.0202
   14TAL    C6629113   5.141   4.486   1.277  0.1018 -0.1232  0.3105
   14TAL    C6729114   5.143   4.336   1.231 -0.2090 -0.3834  0.1283
   14TAL    C6829115   5.149   4.319   1.080  0.3933 -0.2116 -0.1569
   14TAL    C6929116   5.128   4.176   1.032 -0.5537 -0.1047  0.5446
   14TAL    C7029117   5.170   4.150   0.886  0.2915 -0.8198 -0.1487
   15HTM    C7129118   5.527   4.723   1.149  0.0594  0.2365  0.0096
   15HTM    C7229119   5.590   4.749   1.031 -0.0710 -0.0610 -0.1270
   15HTM    C7329120   5.728   4.705   1.028 -0.2046 -0.4680 -0.3279
   15HTM    C7429121   5.769   4.645   1.143 -0.1758 -0.4805 -0.3445
   15HTM     S829122   5.636   4.640   1.266  0.0235  0.0242 -0.1058
   16TAL    C7529123   5.813   4.703   0.900 -0.0597 -0.2518  0.3735
   16TAL    C7629124   5.831   4.829   0.820 -0.5787 -0.1791 -0.2029
   16TAL    C7729125   5.881   4.958   0.897 -0.0563  0.6522 -0.1896
   16TAL    C7829126   5.946   5.060   0.806  0.5599  0.0938 -0.1882
   16TAL    C7929127   6.061   5.019   0.713 -0.0170 -0.0041  0.0847
   16TAL    C8029128   6.119   5.131   0.624  0.0680 -0.7880  0.1205
   17HTM    C8129129   5.901   4.586   1.180 -0.4845 -0.0813 -0.4527
   17HTM    C8229130   5.928   4.471   1.248 -0.6287 -0.0682 -0.3740
   17HTM    C8329131   6.068   4.441   1.260 -0.6487 -0.0072  0.0309
   17HTM    C8429132   6.149   4.534   1.201 -0.5197  0.0262  0.2608
   17HTM     S929133   6.053   4.667   1.126 -0.3619 -0.0170 -0.0182
   18TAL    C8529134   6.110   4.310   1.327 -0.0278  0.5685  0.0801
   18TAL    C8629135   6.075   4.184   1.251  0.1526 -0.2102  0.5422
   18TAL    C8729136   6.158   4.062   1.296  1.0135  0.2248 -0.0630
   18TAL    C8829137   6.295   4.055   1.233  0.0905 -0.7725  0.3034
   18TAL    C8929138   6.363   3.919   1.216  0.3873  0.1408 -0.4572
   18TAL    C9029139   6.307   3.812   1.118 -0.2254 -0.5308 -0.0947
   19HTM    C9129140   6.296   4.531   1.188 -0.5613 -0.1506  0.4393
   19HTM    C9229141   6.376   4.617   1.119 -0.8471  0.3409  0.7131
   19HTM    C9329142   6.515   4.578   1.117 -0.7346  0.7429  0.4743
   19HTM    C9429143   6.540   4.461   1.183 -0.3628  0.5574  0.0184
   19HTM    S1029144   6.389   4.393   1.255 -0.1241 -0.1441 -0.1457
   20TAL    C9529145   6.621   4.648   1.035  0.4119 -1.1125  0.4185
   20TAL    C9629146   6.606   4.794   1.016  0.7432  0.3577  0.2771
   20TAL    C9729147   6.704   4.867   0.922  0.1361 -0.3568  0.0883
   20TAL    C9829148   6.658   5.014   0.903 -0.5390 -0.9575  0.0539
   20TAL    C9929149   6.762   5.127   0.892 -0.4924  0.1056  0.5492
   20TAL   C10029150   6.864   5.120   0.785 -0.0909 -0.3520 -0.3518
   21HTM   C10129151   6.662   4.384   1.207  0.1364  0.2221 -0.4497
   21HTM   C10229152   6.671   4.266   1.275  0.0086  0.3390 -0.2303
   21HTM   C10329153   6.794   4.196   1.254 -0.0641  0.1695 -0.0924
   21HTM   C10429154   6.880   4.260   1.170  0.0082 -0.0771 -0.2068
   21HTM    S1129155   6.811   4.415   1.110  0.1750 -0.1145 -0.4996
   22TAL   C10529156   6.829   4.078   1.349  0.2379  0.1236  0.8296
   22TAL   C10629157   6.738   3.964   1.361 -0.2716  0.2375  0.0879
   22TAL   C10729158   6.811   3.853   1.441 -0.0533  0.0859  0.9112
   22TAL   C10829159   6.741   3.717   1.450 -0.4988  0.0533 -0.1881
   22TAL   C10929160   6.714   3.636   1.322  0.3906  0.1838  0.3066
   22TAL   C11029161   6.642   3.506   1.347 -0.1906  0.4170 -0.2086
   23HTM   C11129162   7.014   4.218   1.125  0.0426 -0.1319 -0.4493
   23HTM   C11229163   7.095   4.305   1.058  0.0606 -0.1769 -0.4852
   23HTM   C11329164   7.230   4.256   1.041  0.1283 -0.0863 -0.2079
   23HTM   C11429165   7.251   4.133   1.095  0.1615  0.0276  0.0394
   23HTM    S1229166   7.101   4.068   1.172  0.1100  0.0295 -0.0596
   24TAL   C11529167   7.338   4.330   0.961  0.1499  0.2403  0.6518
   24TAL   C11629168   7.323   4.474   0.917 -0.3686 -0.5445 -0.6721
   24TAL   C11729169   7.260   4.571   1.013 -0.3490 -0.1660 -0.3670
   24TAL   C11829170   7.269   4.719   0.979  0.3064  1.4593  0.7454
   24TAL   C11929171   7.177   4.818   1.043  0.3598  0.3493  0.7330
   24TAL   C12029172   7.213   4.954   0.994  0.2587 -0.0329 -0.1084
   25HTM   C12129173   7.364   4.039   1.084 -0.4597  0.1156  0.2509
   25HTM   C12229174   7.493   4.051   1.124 -0.4697  0.1001  0.2887
   25HTM   C12329175   7.578   3.942   1.082 -0.4072  0.2338  0.0653
   25HTM   C12429176   7.512   3.847   1.009 -0.3500  0.3511 -0.1429
   25HTM    S1329177   7.338   3.887   0.989 -0.3698  0.3012 -0.0724
   26TAL   C12529178   7.724   3.947   1.130 -0.3060 -0.8568  0.2457
   26TAL   C12629179   7.819   4.012   1.038 -0.7479 -0.1404  0.3761
   26TAL   C12729180   7.971   3.988   1.085  0.0634  0.3329 -0.0964
   26TAL   C12829181   8.013   4.045   1.217 -0.1560  0.2518  0.4639
   26TAL   C12929182   8.146   3.984   1.268 -0.3644 -0.0052 -0.1312
   26TAL   C13029183   8.203   4.043   1.394  0.1777  0.3909 -0.5687
   27HTM   C13129184   7.563   3.730   0.936  0.3309 -0.2092  0.0042
   27HTM   C13229185   7.687   3.713   0.883  0.3695 -0.5475  0.1974
   27HTM   C13329186   7.701   3.593   0.804  0.1526 -0.5659  0.1872
   27HTM   C13429187   7.587   3.518   0.798 -0.0516 -0.2413 -0.0138
   27HTM    S1429188   7.453   3.594   0.892  0.0148  0.1151 -0.2073
   28TAL   C13529189   7.836   3.556   0.744  0.2429 -0.3751 -0.5195
   28TAL   C13629190   7.968   3.587   0.817 -0.1672  0.3753 -0.2335
   28TAL   C13729191   8.087   3.566   0.726 -0.4638 -0.2669 -0.0448
   28TAL   C13829192   8.210   3.645   0.782 -0.2393  0.1883 -0.1383
   28TAL   C13929193   8.344   3.618   0.716  0.6175 -0.2398  0.3495
   28TAL   C14029194   8.450   3.707   0.782  0.2887 -0.4286  0.0527
   29HTM   C14129195   7.549   3.400   0.720 -0.0501  0.0979  0.3140
   29HTM   C14229196   7.434   3.328   0.723 -0.3288  0.5264 -0.0036
   29HTM   C14329197   7.426   3.226   0.622 -0.6032  0.8159 -0.2773
   29HTM   C14429198   7.536   3.221   0.542 -0.5337  0.6082 -0.1683
   29HTM    S1529199   7.659   3.345   0.588 -0.1133  0.0261  0.2920
   30TAL   C14529200   7.299   3.140   0.602  0.4132 -0.2033  0.0233
   30TAL   C14629201   7.206   3.119   0.724 -0.6224  1.3848  0.3529
   30TAL   C14729202   7.079   3.036   0.694  0.3673 -0.1949  0.8846
   30TAL   C14829203   7.079   2.885   0.671  0.5016  0.2033 -0.4572
   30TAL   C14929204   6.943   2.823   0.643  0.3605  0.1782  0.2573
   30TAL   C15029205   6.821   2.839   0.737 -0.1390 -0.2761  0.0502
   31HTM   C15129206   7.570   3.135   0.431 -0.0424 -0.0220  0.4875
   31HTM   C15229207   7.601   3.189   0.310 -0.6983  0.2866  0.4494
   31HTM   C15329208   7.604   3.092   0.203 -0.9210  0.4958  0.2531
   31HTM   C15429209   7.575   2.965   0.243 -0.4348  0.3467  0.1414
   31HTM    S1629210   7.541   2.957   0.420  0.3485 -0.0728  0.2767
   32TAL   C15529211   7.629   3.137   0.067  0.3916 -0.5888  0.2261
   32TAL   C15629212   7.746   3.228   0.028  0.2207  0.2053  0.2409
   32TAL   C15729213   7.873   3.144   0.019 -0.0456  0.3223 -0.1192
   32TAL   C15829214   7.989   3.227  -0.017  0.1709 -0.9983  0.5064
   32TAL   C15929215   8.118   3.150   0.026  0.0261 -0.1304  0.7625
   32TAL   C16029216   8.242   3.223  -0.008 -0.2277  0.4817 -0.4218
   33HTM   C16129217   7.572   2.847   0.163 -0.1299  0.1606 -0.0188
   33HTM   C16229218   7.630   2.726   0.186 -0.3924  0.0852  0.2577
   33HTM   C16329219   7.608   2.631   0.080 -0.4253 -0.0432  0.3800
   33HTM   C16429220   7.534   2.679  -0.023 -0.1876 -0.0657  0.1966
   33HTM    S1729221   7.484   2.850   0.005  0.0981  0.0748 -0.1472
   34TAL   C16529222   7.665   2.491   0.111 -0.6183  0.2139 -0.2871
   34TAL   C16629223   7.693   2.385   0.010  0.2308 -0.3218  0.2559
   34TAL   C16729224   7.784   2.422  -0.102  0.0189  0.1729 -0.9772
   34TAL   C16829225   7.809   2.314  -0.206  0.1037 -0.0017  0.0331
   34TAL   C16929226   7.899   2.349  -0.325  0.1113  0.1058 -0.1281
   34TAL   C17029227   8.038   2.411  -0.302  0.1306  0.4780 -0.9808
   35HTM   C17129228   7.494   2.624  -0.149  0.6008  0.2316  0.0879
   35HTM   C17229229   7.394   2.535  -0.173  0.3898  0.3924  0.3681
   35HTM   C17329230   7.388   2.490  -0.309 -0.1328  0.4855  0.3572
   35HTM   C17429231   7.484   2.544  -0.389 -0.3203  0.3956  0.0687
   35HTM    S1829232   7.590   2.658  -0.298  0.1516  0.1847 -0.2135
   36TAL   C17529233   7.296   2.376  -0.347 -0.6475  0.3762 -0.2011
   36TAL   C17629234   7.303   2.232  -0.282 -0.1937  0.0232  0.8233
   36TAL   C17729235   7.435   2.155  -0.280  0.0325 -0.8428 -0.1175
   36TAL   C17829236   7.505   2.144  -0.419  0.5768  0.0286  0.1391
   36TAL   C17929237   7.633   2.068  -0.396  0.3329  0.2402 -0.4386
   36TAL   C18029238   7.719   2.074  -0.523  0.2114  0.3870  0.6991
   37HTM   C18129239   7.519   2.520  -0.528  0.2106  0.2761  0.2198
   37HTM   C18229240   7.442   2.500  -0.639  0.1171  0.4069  0.2613
   37HTM   C18329241   7.518   2.469  -0.757  0.0024  0.3208  0.2093
   37HTM   C18429242   7.653   2.464  -0.736  0.0089  0.1242  0.1300
   37HTM    S1929243   7.694   2.500  -0.564  0.1613  0.0321  0.1121
   38TAL   C18529244   7.445   2.451  -0.888 -0.5415 -0.3441  0.1439
   38TAL   C18629245   7.314   2.373  -0.891  0.0313 -0.2631 -0.2314
   38TAL   C18729246   7.332   2.225  -0.858  0.1850 -0.4682  0.3160
   38TAL   C18829247   7.428   2.135  -0.933  0.8978 -0.5868 -0.0155
   38TAL   C18929248   7.453   2.001  -0.864 -0.4684 -0.5269  0.3115
   38TAL   C19029249   7.531   1.910  -0.955  0.3325  0.0094 -0.1840
   39HTM   C19129250   7.761   2.431  -0.831 -0.2234 -0.1075 -0.1253
   39HTM   C19229251   7.774   2.334  -0.926 -0.1805 -0.0572 -0.1698
   39HTM   C19329252   7.888   2.354  -1.013 -0.0997 -0.0507 -0.0625
   39HTM   C19429253   7.961   2.465  -0.984 -0.0813 -0.0958  0.0650
   39HTM    S2029254   7.891   2.555  -0.844 -0.1648 -0.1506  0.0584
   40TAL   C19529255   7.929   2.259  -1.126 -0.2841  0.4112  0.2252
   40TAL   C19629256   7.872   2.118  -1.124  0.2200 -0.1065  0.0718
   40TAL   C19729257   7.918   2.014  -1.228  0.3895 -0.5542 -0.4912
   40TAL   C19829258   7.845   1.887  -1.205  0.0870  0.7937 -0.0403
   40TAL   C19929259   7.919   1.796  -1.109  0.1777  0.0286  0.5133
   40TAL   C20029260   7.827   1.680  -1.071  0.2720  0.6359 -0.1559
   41HTM   C20129261   8.073   2.532  -1.040 -0.2907 -0.1561 -0.4390
   41HTM   C20229262   8.157   2.622  -0.982 -0.5932 -0.0411 -0.1822
   41HTM   C20329263   8.263   2.668  -1.068 -0.4644  0.1982  0.1001
   41HTM   C20429264   8.260   2.612  -1.192 -0.0641  0.2656  0.0598
   41HTM    S2129265   8.122   2.497  -1.211  0.1831  0.0304 -0.3420
   42TAL   C20529266   8.370   2.773  -1.031 -0.1968  0.9637 -0.4968
   42TAL   C20629267   8.386   2.833  -0.891 -0.3912 -0.1365 -0.3527
   42TAL   C20729268   8.260   2.900  -0.827 -0.1979 -0.4292 -0.1209
   42TAL   C20829269   8.215   3.022  -0.905 -0.1704 -0.1661  0.3445
   42TAL   C20929270   8.110   3.107  -0.828 -0.5376 -0.0096  0.6689
   42TAL   C21029271   7.967   3.067  -0.848 -0.1256  0.3453 -0.2260
   43HTM   C21129272   8.339   2.626  -1.312  0.0390 -0.2205  0.0915
   43HTM   C21229273   8.354   2.533  -1.411  0.7925 -0.4833  0.4451
   43HTM   C21329274   8.431   2.580  -1.523  0.8736 -0.4725  0.5057
   43HTM   C21429275   8.474   2.709  -1.510  0.1830 -0.2015  0.1982
   43HTM    S2229276   8.421   2.781  -1.353 -0.6311  0.0634 -0.1947
   44TAL   C21529277   8.435   2.494  -1.650 -0.2628 -0.1990  0.1537
   44TAL   C21629278   8.353   2.371  -1.676  0.1347  0.1541 -0.6707
   44TAL   C21729279   8.389   2.238  -1.613  0.2958 -0.3276  0.5262
   44TAL   C21829280   8.313   2.138  -1.694  0.1760 -0.2308  0.3273
   44TAL   C21929281   8.303   2.007  -1.614  0.2242 -0.0183 -0.0084
   44TAL   C22029282   8.227   1.896  -1.685 -0.3785  0.5798 -0.5018
   45HTM   C22129283   8.551   2.793  -1.596  0.2837  0.2614 -0.2075
   45HTM   C22229284   8.548   2.929  -1.600  0.2689  0.2519 -0.5620
   45HTM   C22329285   8.650   2.987  -1.684  0.1969  0.0420 -0.7946
   45HTM   C22429286   8.730   2.895  -1.744  0.1580 -0.1083 -0.6181
   45HTM    S2329287   8.683   2.727  -1.699  0.2081  0.0042 -0.1401
   46TAL   C22529288   8.661   3.144  -1.697  0.2234 -0.0593 -0.8034
   46TAL   C22629289   8.571   3.245  -1.620 -0.2195 -0.2338 -0.1026
   46TAL   C22729290   8.539   3.370  -1.701  0.2554 -0.7063 -0.4049
   46TAL   C22829291   8.416   3.458  -1.650  0.1503  0.6071  0.6430
   46TAL   C22929292   8.393   3.581  -1.728  0.4767 -0.0099  0.5200
   46TAL   C23029293   8.273   3.665  -1.699  0.7495 -0.3688 -0.4942
   47HTM   C23129294   8.848   2.911  -1.827 -0.1404 -0.1674  0.0515
   47HTM   C23229295   8.918   2.805  -1.877  0.0758 -0.2517  0.5264
   47HTM   C23329296   9.036   2.843  -1.949  0.1917 -0.3532  0.6628
   47HTM   C23429297   9.057   2.978  -1.954  0.0639 -0.3463  0.2922
   47HTM    S2429298   8.927   3.068  -1.867 -0.2155 -0.2100 -0.2623
   48TAL   C23529299   9.118   2.755  -2.032 -0.1729  0.6645 -0.2253
   48TAL   C23629300   9.241   2.683  -1.977  0.6142 -0.4618  0.2102
   48TAL   C23729301   9.217   2.582  -1.869 -0.2152  0.5346  0.4381
   48TAL   C23829302   9.129   2.462  -1.903  0.2926  0.0314 -0.3143
   48TAL   C23929303   9.118   2.375  -1.782  0.0515  0.6529  0.5703
   48TAL   C24029304   9.077   2.230  -1.809  0.1906 -0.1481  0.0260
    1HTM     C129305   6.138   4.833   3.837 -0.4548 -0.2143  0.0385
    1HTM     C229306   6.020   4.781   3.881 -0.7398  0.3839 -0.0051
    1HTM     C329307   5.953   4.863   3.978 -0.4506  0.8123 -0.1636
    1HTM     C429308   6.020   4.977   4.009  0.0551  0.5402 -0.2399
    1HTM     S129309   6.174   4.991   3.916  0.2063 -0.2843 -0.1178
    2TAL     C529310   5.819   4.830   4.044 -0.2268 -0.1830 -0.9245
    2TAL     C629311   5.722   4.744   3.960  0.5922  0.4565 -0.3239
    2TAL     C729312   5.580   4.727   4.006  0.2174 -0.3018  0.0920
    2TAL     C829313   5.504   4.620   3.934  0.1658  0.6158  0.0368
    2TAL     C929314   5.381   4.587   4.011 -0.1001  0.5592  0.3324
    2TAL    C1029315   5.312   4.467   3.941  0.3815 -0.1542  0.1102
    3HTM    C1129316   5.998   5.073   4.112 -0.4094 -0.1454  0.0974
    3HTM    C1229317   6.069   5.101   4.225 -0.5157 -0.4737  0.2449
    3HTM    C1329318   6.013   5.208   4.303 -0.3300 -0.3908  0.2649
    3HTM    C1429319   5.900   5.262   4.250 -0.0823  0.0007  0.1322
    3HTM     S229320   5.855   5.181   4.095 -0.0642  0.2972 -0.0288
    4TAL    C1529321   6.069   5.231   4.448  0.0249  0.4079 -0.0888
    4TAL    C1629322   6.225   5.217   4.468  0.1573  0.4678 -0.0170
    4TAL    C1729323   6.329   5.301   4.399  0.6902  0.0561 -0.0245
    4TAL    C1829324   6.471   5.246   4.424 -0.2568  0.8825  0.2892
    4TAL    C1929325   6.584   5.335   4.379  0.0496  0.1572 -0.4397
    4TAL    C2029326   6.725   5.284   4.406 -0.0051 -0.3289 -0.1284
    5HTM    C2129327   5.815   5.371   4.304  0.1692  0.1330 -0.2260
    5HTM    C2229328   5.681   5.383   4.282  0.1731 -0.2482 -0.4756
    5HTM    C2329329   5.622   5.495   4.350 -0.2658 -0.3951 -0.6154
    5HTM    C2429330   5.710   5.568   4.424 -0.6040 -0.1259 -0.4729
    5HTM     S329331   5.877   5.501   4.412 -0.3934  0.3375 -0.1478
    6TAL    C2529332   5.471   5.526   4.355  0.2334 -0.3548  0.3703
    6TAL    C2629333   5.372   5.433   4.282 -0.1069  0.0743  0.4432
    6TAL    C2729334   5.227   5.453   4.315  0.4105 -0.1287 -0.3460
    6TAL    C2829335   5.159   5.585   4.306  0.1161 -0.1058 -0.0756
    6TAL    C2929336   5.004   5.572   4.313  0.4978  0.6417  0.4844
    6TAL    C3029337   4.948   5.543   4.448 -0.5771 -0.1757 -0.1802
    7HTM    C3129338   5.701   5.683   4.506  0.3469 -0.1549 -0.4039
    7HTM    C3229339   5.593   5.764   4.525  0.3486 -0.0830 -0.6881
    7HTM    C3329340   5.617   5.872   4.617  0.1860 -0.0837 -0.6442
    7HTM    C3429341   5.744   5.873   4.668  0.0602 -0.1555 -0.3267
    7HTM     S429342   5.843   5.737   4.603  0.1382 -0.2294 -0.0557
    8TAL    C3529343   5.520   5.978   4.654  0.3414  0.4906  0.0184
    8TAL    C3629344   5.371   5.969   4.628 -0.0031 -0.4803  0.5607
    8TAL    C3729345   5.281   5.872   4.705 -0.3385 -0.8124 -0.6079
    8TAL    C3829346   5.130   5.869   4.672 -0.2925  0.9989  0.4505
    8TAL    C3929347   5.057   6.001   4.672 -0.5170 -0.4172  0.2273
    8TAL    C4029348   4.917   6.005   4.611 -0.2642  0.1118  0.5380
    9HTM    C4129349   5.807   5.981   4.747  0.0145  0.3827  0.0592
    9HTM    C4229350   5.762   6.057   4.850  0.3438  0.1414  0.3812
    9HTM    C4329351   5.860   6.149   4.901  0.6502 -0.2933  0.5839
    9HTM    C4429352   5.980   6.143   4.836  0.5554 -0.3833  0.4159
    9HTM     S529353   5.978   6.020   4.705  0.0668  0.0777 -0.0142
   10TAL    C4529354   5.815   6.243   5.014 -0.1685 -0.4524  0.3275
   10TAL    C4629355   5.795   6.190   5.157  0.1651  0.1082  0.6303
   10TAL    C4729356   5.919   6.146   5.234 -0.1539  0.2536 -0.0017
   10TAL    C4829357   5.992   6.274   5.269 -0.5547 -0.1272  0.0789
   10TAL    C4929358   6.124   6.246   5.346  0.2480 -0.3646  0.5130
   10TAL    C5029359   6.183   6.371   5.401  0.5375 -0.5545 -0.2298
   11HTM    C5129360   6.093   6.229   4.847 -0.1442 -0.1479 -0.1171
   11HTM    C5229361   6.207   6.206   4.776 -0.1447  0.1588 -0.2155
   11HTM    C5329362   6.314   6.298   4.806 -0.2351  0.1988 -0.0219
   11HTM    C5429363   6.281   6.390   4.901 -0.3034 -0.0768  0.2242
   11HTM     S629364   6.112   6.369   4.959 -0.2594 -0.4115  0.2307
   12TAL    C5529365   6.457   6.287   4.752 -0.5420  0.8515 -0.2542
   12TAL    C5629366   6.484   6.230   4.612 -0.0296  0.0414 -0.5145
   12TAL    C5729367   6.628   6.199   4.574 -0.4182  0.3833  0.7212
   12TAL    C5829368   6.698   6.071   4.627  0.4453  0.5675 -0.2086
   12TAL    C5929369   6.636   5.931   4.641 -0.8649 -0.0236 -0.8128
   12TAL    C6029370   6.725   5.824   4.698 -0.3468 -0.3859  0.5403
   13HTM    C6129371   6.357   6.496   4.972  0.3185 -0.0904  0.3741
   13HTM    C6229372   6.308   6.570   5.076  0.6895 -0.3557  0.7417
   13HTM    C6329373   6.401   6.665   5.129  0.7951 -0.3088  0.4747
   13HTM    C6429374   6.522   6.664   5.066  0.5043 -0.0080 -0.0964
   13HTM     S729375   6.527   6.542   4.934  0.0710  0.2417 -0.3433
   14TAL    C6529376   6.355   6.751   5.239  0.5991 -0.7948 -0.0883
   14TAL    C6629377   6.262   6.868   5.197 -0.6969 -0.1371  0.0452
   14TAL    C6729378   6.335   6.967   5.108 -0.7009 -0.4349  0.0540
   14TAL    C6829379   6.293   7.114   5.122  0.4404  0.0411 -0.4840
   14TAL    C6929380   6.356   7.193   5.012 -0.2450  0.4884  0.3671
   14TAL    C7029381   6.515   7.194   4.999  0.5660  0.0472 -0.0538
   15HTM    C7129382   6.644   6.739   5.099 -0.3601 -0.0775  0.2945
   15HTM    C7229383   6.758   6.731   5.025 -0.2618 -0.4494  0.4864
   15HTM    C7329384   6.854   6.834   5.055 -0.1533 -0.5095  0.3455
   15HTM    C7429385   6.813   6.921   5.151 -0.1696 -0.1831  0.0465
   15HTM     S829386   6.648   6.879   5.213 -0.3239  0.2289 -0.0817
   16TAL    C7529387   6.992   6.825   4.987  0.3446 -0.2321  0.0116
   16TAL    C7629388   6.987   6.899   4.851  0.4714 -0.3598 -0.4224
   16TAL    C7729389   7.130   6.921   4.790  0.3964 -0.9601  0.4065
   16TAL    C7829390   7.213   7.021   4.873  0.5556 -0.1427  0.4685
   16TAL    C7929391   7.348   7.056   4.812  0.3498 -0.0904 -0.0458
   16TAL    C8029392   7.415   7.186   4.845 -0.3467  0.0788  0.1843
   17HTM    C8129393   6.880   7.038   5.196 -0.4415  0.6239 -0.5189
   17HTM    C8229394   6.812   7.155   5.214 -0.0124  0.8950 -0.6413
   17HTM    C8329395   6.897   7.270   5.228  0.4292  0.5188 -0.2086
   17HTM    C8429396   7.030   7.241   5.221  0.3373 -0.0394  0.2443
   17HTM     S929397   7.058   7.065   5.195 -0.3199 -0.1335  0.1586
   18TAL    C8529398   6.838   7.413   5.252  0.0577 -0.7058  0.6366
   18TAL    C8629399   6.684   7.424   5.243 -0.4386 -0.1134  0.1882
   18TAL    C8729400   6.633   7.567   5.267 -0.2935 -0.4696  0.1215
   18TAL    C8829401   6.475   7.578   5.250 -0.1328 -0.3359 -0.2833
   18TAL    C8929402   6.396   7.553   5.122  0.3290  0.1864 -0.0787
   18TAL    C9029403   6.250   7.573   5.150  0.9018 -0.0939 -0.5335
   19HTM    C9129404   7.148   7.320   5.211  0.0369  0.0471  0.0846
   19HTM    C9229405   7.169   7.448   5.171  0.0632  0.0746  0.1867
   19HTM    C9329406   7.307   7.481   5.150  0.0861  0.1190  0.3998
   19HTM    C9429407   7.392   7.377   5.173  0.0772  0.1254  0.4605
   19HTM    S1029408   7.304   7.229   5.224  0.0389  0.0756  0.2511
   20TAL    C9529409   7.334   7.623   5.102 -0.6701  0.2375  0.3873
   20TAL    C9629410   7.337   7.629   4.951 -0.5137 -0.1862 -0.2044
   20TAL    C9729411   7.398   7.764   4.909  0.3016 -0.1456  0.8081
   20TAL    C9829412   7.550   7.794   4.938  0.5663  0.0149 -0.0114
   20TAL    C9929413   7.596   7.930   4.882 -0.2083  0.1976 -0.0363
   20TAL   C10029414   7.746   7.948   4.891  0.0478 -0.3906  0.3888
   21HTM   C10129415   7.538   7.358   5.151  0.2600 -0.3422  0.0419
   21HTM   C10229416   7.600   7.236   5.147  0.5701 -0.1864  0.0367
   21HTM   C10329417   7.738   7.242   5.108  0.5791  0.1767  0.1242
   21HTM   C10429418   7.782   7.369   5.082  0.2759  0.2980  0.1961
   21HTM    S1129419   7.651   7.491   5.105 -0.0466 -0.0399  0.1582
   22TAL   C10529420   7.827   7.118   5.111 -0.1577  0.1668 -0.5667
   22TAL   C10629421   7.771   6.979   5.141 -0.4260 -0.0305 -0.6991
   22TAL   C10729422   7.888   6.884   5.121 -0.1789 -0.3065 -0.3653
   22TAL   C10829423   7.853   6.746   5.167 -0.1349 -0.9096 -0.1417
   22TAL   C10929424   7.959   6.642   5.130  0.6587 -0.8868  0.2992
   22TAL   C11029425   7.936   6.491   5.150  0.3123 -0.2087  0.7601
   23HTM   C11129426   7.918   7.422   5.038  0.2291 -0.0151  0.6002
   23HTM   C11229427   7.956   7.551   5.012  0.1938  0.0277  0.7634
   23HTM   C11329428   8.095   7.565   4.979  0.1121  0.0591  0.4265
   23HTM   C11429429   8.164   7.448   4.980  0.0838  0.0403  0.0065
   23HTM    S1229430   8.058   7.309   5.022  0.1604 -0.0191  0.0038
   24TAL   C11529431   8.158   7.694   4.926 -0.0723 -0.5068  0.0960
   24TAL   C11629432   8.101   7.820   4.998 -0.1980  0.7201  0.1232
   24TAL   C11729433   8.182   7.945   4.987 -0.1159 -0.5135 -0.0798
   24TAL   C11829434   8.125   8.061   5.051 -0.4491 -0.0030  0.4133
   24TAL   C11929435   8.196   8.193   5.038 -0.4656  0.1667  0.1408
   24TAL   C12029436   8.125   8.318   5.094  0.4114  0.5263 -0.0005
   25HTM   C12129437   8.301   7.414   4.953  0.2011 -0.2292 -0.1585
   25HTM   C12229438   8.415   7.488   4.971  0.2422 -0.3912  0.2563
   25HTM   C12329439   8.536   7.411   4.955  0.1926 -0.4919  0.3688
   25HTM   C12429440   8.514   7.280   4.926  0.1134 -0.4063  0.0395
   25HTM    S1329441   8.338   7.242   4.916  0.0952 -0.1903 -0.4420
   26TAL   C12529442   8.677   7.468   4.968 -0.2171 -0.6574 -0.0276
   26TAL   C12629443   8.701   7.616   4.918 -0.7016 -0.6353 -0.3778
   26TAL   C12729444   8.815   7.693   4.988  0.2454 -0.4244 -0.0759
   26TAL   C12829445   8.880   7.811   4.911 -0.0063 -0.0178 -0.1129
   26TAL   C12929446   8.966   7.788   4.782  0.0241 -0.0938  0.4928
   26TAL   C13029447   9.031   7.907   4.728  0.3561 -0.3430 -0.1557
   27HTM   C13129448   8.603   7.174   4.883  0.0304 -0.5207 -0.4326
   27HTM   C13229449   8.690   7.182   4.779  0.2813 -0.4389 -0.2186
   27HTM   C13329450   8.751   7.057   4.744  0.5465 -0.3674 -0.0186
   27HTM   C13429451   8.710   6.952   4.822  0.4974 -0.3944 -0.0799
   27HTM    S1429452   8.591   7.005   4.946  0.1100 -0.5136 -0.3972
   28TAL   C13529453   8.848   7.059   4.628 -0.2911 -0.0250  0.3414
   28TAL   C13629454   8.784   7.107   4.493  0.9690 -0.0969  0.4719
   28TAL   C13729455   8.657   7.037   4.449  0.2904 -0.0499 -0.2438
   28TAL   C13829456   8.665   6.888   4.433  0.0318  0.3184  1.3200
   28TAL   C13929457   8.534   6.818   4.408 -0.1670  0.6141  0.0193
   28TAL   C14029458   8.437   6.793   4.529  0.1853 -0.1288 -0.4725
   29HTM   C14129459   8.745   6.816   4.813  0.0235  0.5294 -0.0501
   29HTM   C14229460   8.667   6.704   4.810 -0.2427  0.7281 -0.9058
   29HTM   C14329461   8.741   6.581   4.828 -0.6180  0.4635 -1.1683
   29HTM   C14429462   8.875   6.600   4.844 -0.6368  0.0627 -0.5120
   29HTM    S1529463   8.919   6.774   4.838 -0.1795 -0.0122  0.4954
   30TAL   C14529464   8.670   6.447   4.835 -0.0392 -0.7511 -0.2831
   30TAL   C14629465   8.618   6.427   4.979  0.6762  0.0068  0.6769
   30TAL   C14729466   8.528   6.306   5.004  0.0737 -0.2415  0.6742
   30TAL   C14829467   8.432   6.320   5.122 -0.0634  0.3059 -0.0690
   30TAL   C14929468   8.328   6.206   5.151 -0.4157 -0.1844 -0.3231
   30TAL   C15029469   8.220   6.249   5.248 -1.3516  0.2703 -0.3647
   31HTM   C15129470   8.987   6.509   4.850 -0.3746 -0.5098 -0.5759
   31HTM   C15229471   8.992   6.391   4.917 -0.1640 -0.4530 -0.4900
   31HTM   C15329472   9.120   6.326   4.910  0.1101  0.0231 -0.0050
   31HTM   C15429473   9.212   6.394   4.837  0.1079  0.3288  0.2789
   31HTM    S1629474   9.144   6.548   4.772 -0.2427  0.0375 -0.0464
   32TAL   C15529475   9.151   6.192   4.982  0.7533 -0.0335  1.0703
   32TAL   C15629476   9.073   6.070   4.936  0.2598  0.6531 -0.2819
   32TAL   C15729477   9.150   5.937   4.953  0.3933  0.3075 -0.7102
   32TAL   C15829478   9.242   5.902   4.842 -0.2493  0.8624  0.2823
   32TAL   C15929479   9.317   5.772   4.858  0.1483 -0.0269  0.3947
   32TAL   C16029480   9.420   5.760   4.748  0.2730 -0.1501 -0.1510
   33HTM   C16129481   9.352   6.374   4.813  0.1610  0.2495  0.0325
   33HTM   C16229482   9.421   6.258   4.833  0.1094  0.2029 -0.0584
   33HTM   C16329483   9.560   6.267   4.797  0.1254  0.1848 -0.0007
   33HTM   C16429484   9.597   6.390   4.751  0.1892  0.2174  0.1342
   33HTM    S1729485   9.458   6.504   4.748  0.2344  0.2740  0.1997
   34TAL   C16529486   9.640   6.137   4.797 -0.5221 -0.5641  0.4351
   34TAL   C16629487   9.796   6.130   4.827 -0.3648 -0.0774  0.1503
   34TAL   C16729488   9.832   6.094   4.969  0.0325  0.7491 -0.0787
   34TAL   C16829489   9.960   6.169   5.005  0.4431 -0.1395 -1.0091
   34TAL   C16929490   9.957   6.310   5.071  0.4265 -0.9737 -0.0059
   34TAL   C17029491   9.855   6.417   5.025  0.4181 -0.4288  0.6229
   35HTM   C17129492   9.723   6.448   4.710 -0.5588  0.2106 -0.6481
   35HTM   C17229493   9.813   6.403   4.619 -0.5887  0.1318 -0.6394
   35HTM   C17329494   9.924   6.493   4.597 -0.3795 -0.0768 -0.4456
   35HTM   C17429495   9.917   6.606   4.672 -0.1900 -0.1569 -0.3067
   35HTM    S1829496   9.770   6.609   4.777 -0.2617  0.0259 -0.4104
   36TAL   C17529497  10.031   6.447   4.495 -0.1754  0.0594  0.3798
   36TAL   C17629498  10.000   6.349   4.374  0.1581 -0.1059 -0.0537
   36TAL   C17729499  10.128   6.291   4.313 -0.5464  0.2914 -0.2225
   36TAL   C17829500  10.102   6.163   4.232  0.8848  0.3264  0.2373
   36TAL   C17929501  10.218   6.071   4.206 -0.3301 -0.5418  0.6984
   36TAL   C18029502  10.340   6.133   4.138 -0.1977 -0.5794 -0.2253
   37HTM   C18129503  10.016   6.714   4.681  0.2222  0.1018  0.2140
   37HTM   C18229504  10.002   6.825   4.759  0.7349 -0.0806  0.5717
   37HTM   C18329505  10.112   6.918   4.748  0.8673 -0.2573  0.3917
   37HTM   C18429506  10.210   6.877   4.662  0.4556 -0.2093 -0.1027
   37HTM    S1929507  10.171   6.718   4.587 -0.1359  0.0645 -0.3822
   38TAL   C18529508  10.085   7.050   4.824  0.3331  0.8402 -0.0827
   38TAL   C18629509  10.134   7.180   4.751  0.1830 -0.5210 -0.0616
   38TAL   C18729510  10.049   7.300   4.781  0.6740  0.0014 -0.4243
   38TAL   C18829511   9.903   7.287   4.726  0.1239 -0.2798 -0.1673
   38TAL   C18929512   9.791   7.387   4.761  0.1346  0.0970  0.2634
   38TAL   C19029513   9.651   7.344   4.717  0.0035 -0.4292 -0.1956
   39HTM   C19129514  10.339   6.931   4.619 -0.2366 -0.1706 -0.0406
   39HTM   C19229515  10.423   7.014   4.687 -0.6703  0.2573 -0.0169
   39HTM   C19329516  10.544   7.044   4.614 -0.6213  0.5467  0.1833
   39HTM   C19429517  10.552   6.984   4.492 -0.1501  0.3392  0.3126
   39HTM    S2029518  10.406   6.884   4.459  0.2713 -0.2422  0.1900
   40TAL   C19529519  10.650   7.138   4.675 -0.1369 -0.2586  0.0616
   40TAL   C19629520  10.713   7.074   4.804  1.0710  0.3032  0.2797
   40TAL   C19729521  10.787   6.943   4.777  0.1106  0.2894 -0.1833
   40TAL   C19829522  10.929   6.985   4.760  0.0685 -0.8116 -0.2589
   40TAL   C19929523  11.020   6.891   4.686  0.8347 -0.1371  0.1931
   40TAL   C20029524  10.975   6.858   4.546  0.8909 -0.5483  1.0510
   41HTM   C20129525  10.655   6.981   4.384 -0.0124 -0.0533  0.0414
   41HTM   C20229526  10.753   7.067   4.345  0.0561 -0.1326  0.0367
   41HTM   C20329527  10.825   7.025   4.229  0.0125 -0.1893  0.0300
   41HTM   C20429528  10.783   6.905   4.178 -0.0893 -0.1528  0.0297
   41HTM    S2129529  10.647   6.837   4.275 -0.1383 -0.0441  0.0378
   42TAL   C20529530  10.935   7.113   4.168  0.1689  0.5549  0.5995
   42TAL   C20629531  11.027   7.176   4.273  0.0331  0.2420  0.1981
   42TAL   C20729532  11.127   7.281   4.215 -0.4996  0.7030 -0.1772
   42TAL   C20829533  11.239   7.219   4.131  0.1575 -0.5857  0.4073
   42TAL   C20929534  11.334   7.128   4.212  0.4862 -0.1321 -0.2073
   42TAL   C21029535  11.442   7.068   4.121 -0.2787 -0.0942  0.1397
   43HTM   C21129536  10.831   6.829   4.069 -0.6164 -0.1156  0.1139
   43HTM   C21229537  10.877   6.701   4.080 -0.7771 -0.1843 -0.0126
   43HTM   C21329538  10.894   6.634   3.954 -0.5357  0.0358 -0.0972
   43HTM   C21429539  10.861   6.711   3.846 -0.1909  0.2730 -0.0348
   43HTM    S2229540  10.805   6.875   3.897 -0.1440  0.2363  0.1364
   44TAL   C21529541  10.955   6.497   3.959 -0.2663  0.3282  0.1102
   44TAL   C21629542  10.872   6.389   4.031 -0.0712 -0.0946 -0.0779
   44TAL   C21729543  10.727   6.352   3.982 -0.3558 -0.4452 -0.4448
   44TAL   C21829544  10.728   6.254   3.870  0.8651 -0.0444  0.1347
   44TAL   C21929545  10.586   6.229   3.825  0.0195  0.9839  0.7131
   44TAL   C22029546  10.581   6.112   3.728 -0.1248 -0.2789  0.1796
   45HTM   C22129547  10.838   6.663   3.711  0.0338  0.3437  0.1743
   45HTM   C22229548  10.807   6.539   3.664  0.0006  0.2265  0.5025
   45HTM   C22329549  10.808   6.529   3.520  0.0541 -0.1690  0.5280
   45HTM   C22429550  10.841   6.646   3.458  0.1280 -0.3537  0.2192
   45HTM    S2329551  10.872   6.778   3.577  0.1359 -0.0394 -0.1304
   46TAL   C22529552  10.754   6.410   3.439  0.5072 -0.0402 -0.5254
   46TAL   C22629553  10.609   6.393   3.416 -0.3083 -0.2235  0.4778
   46TAL   C22729554  10.575   6.262   3.336  0.3157 -0.4381  0.5302
   46TAL   C22829555  10.428   6.254   3.287 -0.5102 -0.5846 -0.2661
   46TAL   C22929556  10.368   6.371   3.208  0.3426 -0.3178  0.2210
   46TAL   C23029557  10.218   6.389   3.217 -0.3071 -0.8238  0.1941
   47HTM   C23129558  10.860   6.691   3.314  0.2576  0.0697 -0.1058
   47HTM   C23229559  10.790   6.653   3.203  0.2488 -0.2778  0.0166
   47HTM   C23329560  10.816   6.734   3.087  0.1039 -0.5283 -0.1920
   47HTM   C23429561  10.908   6.833   3.109  0.0021 -0.3717 -0.4736
   47HTM    S2429562  10.967   6.832   3.279  0.0821  0.1077 -0.4971
   48TAL   C23529563  10.753   6.712   2.948  0.3989 -0.3578  0.7380
   48TAL   C23629564  10.768   6.576   2.881  0.5985  0.6367 -0.7836
   48TAL   C23729565  10.740   6.440   2.955 -0.6782  0.1592  0.2146
   48TAL   C23829566  10.753   6.314   2.877 -0.3168 -0.4254  0.7251
   48TAL   C23929567  10.712   6.185   2.948  0.3116  0.4521  0.4302
   48TAL   C24029568  10.566   6.163   2.972 -0.6130  0.4691  0.8881
    1HTM     C129569   3.026   4.578   5.669 -0.2062  0.2228  0.3069
    1HTM     C229570   3.063   4.449   5.649  0.1727  0.3839 -0.0408
    1HTM     C329571   2.953   4.358   5.629  0.4356  0.1137 -0.2770
    1HTM     C429572   2.831   4.419   5.633  0.2569 -0.2534 -0.1091
    1HTM     S129573   2.846   4.596   5.663 -0.2610 -0.2866  0.3637
    2TAL     C529574   2.977   4.210   5.602 -0.0726  0.0565 -0.6465
    2TAL     C629575   3.110   4.158   5.558  0.0939  0.1534  0.2505
    2TAL     C729576   3.156   4.208   5.419 -1.1848  0.0781  0.4984
    2TAL     C829577   3.307   4.179   5.377  0.3694  0.2120  0.0286
    2TAL     C929578   3.340   4.036   5.348  0.0657  0.2409  0.2759
    2TAL    C1029579   3.487   4.009   5.325 -0.8860  0.0640  0.0289
    3HTM    C1129580   2.694   4.369   5.613 -0.0210  0.3957 -0.0983
    3HTM    C1229581   2.579   4.442   5.623  0.0100  0.4628 -0.2317
    3HTM    C1329582   2.459   4.362   5.619 -0.0280  0.5200 -0.2298
    3HTM    C1429583   2.482   4.229   5.606 -0.0881  0.4961 -0.0950
    3HTM     S229584   2.659   4.192   5.598 -0.1012  0.3991  0.0406
    4TAL    C1529585   2.323   4.421   5.642  0.2372  0.1323 -0.1772
    4TAL    C1629586   2.301   4.571   5.652 -0.0641  0.1135  0.2296
    4TAL    C1729587   2.154   4.616   5.642 -0.5808 -0.3840 -0.6883
    4TAL    C1829588   2.085   4.603   5.508  0.6178 -0.3784 -0.0226
    4TAL    C1929589   1.974   4.704   5.499 -0.6972 -0.0446  0.1239
    4TAL    C2029590   1.887   4.682   5.380  0.3047 -0.1731 -0.0802
    5HTM    C2129591   2.398   4.106   5.599 -0.1352 -0.0201 -0.0182
    5HTM    C2229592   2.264   4.100   5.620 -0.1730 -0.0701 -0.2675
    5HTM    C2329593   2.210   3.967   5.608 -0.0809 -0.1096 -0.2480
    5HTM    C2429594   2.303   3.872   5.578  0.0272 -0.0897  0.0162
    5HTM     S329595   2.468   3.944   5.562  0.0207 -0.0189  0.2626
    6TAL    C2529596   2.057   3.949   5.632  0.2839  0.0316  0.1578
    6TAL    C2629597   1.964   4.076   5.647  0.1250  0.3733  0.0854
    6TAL    C2729598   1.947   4.143   5.512  0.0203 -0.0763  0.0886
    6TAL    C2829599   1.877   4.278   5.515  0.2868  0.2145  0.3502
    6TAL    C2929600   1.728   4.273   5.499  0.5661 -0.0336 -0.0397
    6TAL    C3029601   1.653   4.407   5.462  0.3004  0.7127 -0.7314
    7HTM    C3129602   2.286   3.734   5.547 -0.1079 -0.0129 -0.0035
    7HTM    C3229603   2.361   3.653   5.467 -0.2164 -0.1905  0.0734
    7HTM    C3329604   2.320   3.515   5.469 -0.4389 -0.1225  0.1583
    7HTM    C3429605   2.212   3.491   5.549 -0.5003  0.1064  0.1456
    7HTM     S429606   2.155   3.642   5.630 -0.2799  0.2555  0.0251
    8TAL    C3529607   2.373   3.408   5.380  0.0000  0.0081  0.4227
    8TAL    C3629608   2.421   3.439   5.243  0.7643 -0.3282  0.8436
    8TAL    C3729609   2.503   3.327   5.182 -0.0587  0.4279 -0.1003
    8TAL    C3829610   2.524   3.345   5.038  0.7799 -0.3022  0.3233
    8TAL    C3929611   2.581   3.226   4.969  0.0482  0.6861  0.1668
    8TAL    C4029612   2.591   3.237   4.820 -0.4922  0.2637  0.2331
    9HTM    C4129613   2.148   3.362   5.582 -0.0011  0.0720  1.1911
    9HTM    C4229614   2.201   3.244   5.624  0.0434  0.1223  1.2755
    9HTM    C4329615   2.103   3.143   5.653  0.1115 -0.0989  0.7334
    9HTM    C4429616   1.975   3.184   5.632  0.1190 -0.3179  0.2359
    9HTM     S529617   1.968   3.355   5.575  0.0400 -0.2612  0.4144
   10TAL    C4529618   2.151   3.009   5.713 -0.1336  0.4800 -0.2079
   10TAL    C4629619   2.065   2.882   5.726 -0.1676 -0.0585 -0.2631
   10TAL    C4729620   2.123   2.744   5.764 -0.1561  0.1149  0.2081
   10TAL    C4829621   2.036   2.617   5.745 -0.2501 -0.5374 -0.5100
   10TAL    C4929622   2.113   2.483   5.775  0.3707 -0.3021  0.2895
   10TAL    C5029623   2.027   2.360   5.751 -0.5698 -0.2546 -0.0348
   11HTM    C5129624   1.856   3.106   5.633 -0.3683  0.2873  0.4432
   11HTM    C5229625   1.789   3.058   5.742 -0.6211  0.2183  0.2587
   11HTM    C5329626   1.671   2.983   5.709 -0.3917  0.0018 -0.0765
   11HTM    C5429627   1.647   2.974   5.575  0.0359 -0.0942 -0.1482
   11HTM     S629628   1.773   3.061   5.479  0.1831  0.0827  0.2055
   12TAL    C5529629   1.580   2.936   5.825  0.0028 -0.1300  0.2569
   12TAL    C5629630   1.633   2.849   5.948 -0.0841  0.2041 -0.1849
   12TAL    C5729631   1.681   2.705   5.914  0.0439 -0.2026  0.1226
   12TAL    C5829632   1.743   2.612   6.023 -0.0261  0.1202 -0.1437
   12TAL    C5929633   1.828   2.679   6.135  0.8001  0.8644  0.0654
   12TAL    C6029634   1.893   2.563   6.213 -0.6221  0.6542  0.1893
   13HTM    C6129635   1.537   2.907   5.498  0.0660  0.1773 -0.0200
   13HTM    C6229636   1.514   2.914   5.364  0.0134  0.2558 -0.0072
   13HTM    C6329637   1.398   2.840   5.321 -0.0065  0.2854 -0.0041
   13HTM    C6429638   1.332   2.777   5.422  0.0310  0.2293 -0.0144
   13HTM     S729639   1.412   2.806   5.581  0.0949  0.1340 -0.0292
   14TAL    C6529640   1.372   2.821   5.173 -0.1243  0.0531 -0.4787
   14TAL    C6629641   1.288   2.927   5.103  0.8265  0.5623  0.7312
   14TAL    C6729642   1.282   2.907   4.949 -0.4247 -0.4552  0.0645
   14TAL    C6829643   1.418   2.902   4.874 -0.1108  0.3513 -0.0667
   14TAL    C6929644   1.414   2.857   4.728  0.0104 -0.1254 -0.7872
   14TAL    C7029645   1.545   2.856   4.656 -0.7214 -0.2493  0.0256
   15HTM    C7129646   1.213   2.691   5.420 -0.0458 -0.0133  0.1297
   15HTM    C7229647   1.161   2.612   5.517 -0.1847  0.2518  0.2716
   15HTM    C7329648   1.029   2.563   5.488 -0.1652  0.2174  0.2410
   15HTM    C7429649   0.980   2.605   5.368 -0.0115 -0.0740  0.0759
   15HTM     S829650   1.099   2.711   5.282  0.1216 -0.3294 -0.0553
   16TAL    C7529651   0.951   2.484   5.596  0.1098  0.7811 -0.2729
   16TAL    C7629652   1.013   2.373   5.678 -0.7933  0.0992 -0.1124
   16TAL    C7729653   0.923   2.276   5.751  0.3032  0.5695  0.7259
   16TAL    C7829654   0.824   2.323   5.861  0.0406 -0.6102  0.1764
   16TAL    C7929655   0.755   2.214   5.938  0.3362 -0.1247 -0.4101
   16TAL    C8029656   0.653   2.277   6.028  0.5583  0.3987  0.5258
   17HTM    C8129657   0.849   2.589   5.301 -0.1058 -0.2547 -0.0755
   17HTM    C8229658   0.722   2.614   5.345 -0.1953 -0.6372 -0.1128
   17HTM    C8329659   0.624   2.617   5.240 -0.1681 -0.8905 -0.1471
   17HTM    C8429660   0.676   2.595   5.116 -0.0578 -0.7012 -0.1354
   17HTM     S929661   0.854   2.568   5.122  0.0208 -0.1844 -0.0802
   18TAL    C8529662   0.477   2.648   5.272  0.6620 -0.0463 -0.1532
   18TAL    C8629663   0.441   2.733   5.397 -0.2653  0.4264  0.2198
   18TAL    C8729664   0.293   2.777   5.380 -0.1537 -0.3009 -0.1262
   18TAL    C8829665   0.233   2.839   5.511 -0.0285  0.6775 -0.3967
   18TAL    C8929666   0.078   2.839   5.500 -0.7412 -0.5935  0.0117
   18TAL    C9029667   0.001   2.912   5.608  0.9727  0.3791 -0.3345
   19HTM    C9129668   0.608   2.597   4.985  0.2170 -0.1594 -0.2690
   19HTM    C9229669   0.597   2.488   4.903  0.6027 -0.0210 -0.5066
   19HTM    C9329670   0.542   2.519   4.773  0.4239  0.0539 -0.4132
   19HTM    C9429671   0.511   2.650   4.757 -0.0979 -0.0276 -0.1044
   19HTM    S1029672   0.549   2.747   4.904 -0.4065 -0.2067  0.0944
   20TAL    C9529673   0.520   2.409   4.673 -0.4427  0.2694  0.3386
   20TAL    C9629674   0.645   2.327   4.632 -0.2267 -0.0358 -0.1827
   20TAL    C9729675   0.744   2.408   4.551 -0.4902  0.1068 -0.3020
   20TAL    C9829676   0.706   2.454   4.414  0.0080  0.0410  0.7658
   20TAL    C9929677   0.785   2.571   4.366 -0.1746 -0.2313  0.3794
   20TAL   C10029678   0.713   2.608   4.232 -0.4925 -0.6432 -0.1277
   21HTM   C10129679   0.437   2.710   4.650  0.4376 -0.3709 -0.4214
   21HTM   C10229680   0.482   2.761   4.532  0.2438 -0.6398 -0.6149
   21HTM   C10329681   0.378   2.811   4.446  0.1223 -0.5940 -0.4418
   21HTM   C10429682   0.253   2.797   4.499  0.2235 -0.2903 -0.1160
   21HTM    S1129683   0.257   2.720   4.662  0.4821 -0.0367 -0.0017
   22TAL   C10529684   0.420   2.867   4.317 -0.0580 -0.3290  0.3702
   22TAL   C10629685   0.346   2.979   4.239  0.0518 -0.5223 -0.1677
   22TAL   C10729686   0.455   3.026   4.144 -0.2132 -0.7929  0.0038
   22TAL   C10829687   0.407   3.121   4.038  0.0269  0.8500  0.0651
   22TAL   C10929688   0.380   3.258   4.082 -0.7408  0.3203  0.2628
   22TAL   C11029689   0.354   3.365   3.976 -0.2718  0.5437  0.1114
   23HTM   C11129690   0.117   2.814   4.436 -0.3326 -0.8031  0.1097
   23HTM   C11229691   0.078   2.803   4.306 -0.5288 -1.2996  0.2065
   23HTM   C11329692  -0.063   2.824   4.285 -0.4811 -0.8929  0.2797
   23HTM   C11429693  -0.132   2.851   4.399 -0.2493 -0.0861  0.2387
   23HTM    S1229694  -0.023   2.852   4.543 -0.0711  0.2246  0.1029
   24TAL   C11529695  -0.111   2.835   4.137  0.1789 -0.3843  0.5679
   24TAL   C11629696  -0.106   2.701   4.069 -0.0503 -0.8284 -0.4187
   24TAL   C11729697  -0.158   2.688   3.931 -0.4686 -0.3382 -0.0795
   24TAL   C11829698  -0.195   2.544   3.902 -0.6437  0.0443  0.2909
   24TAL   C11929699  -0.293   2.521   3.792  0.5589  0.4119 -0.0318
   24TAL   C12029700  -0.348   2.384   3.803  0.0060  0.3689 -0.7531
   25HTM   C12129701  -0.274   2.869   4.418  0.4875  0.2397  0.3954
   25HTM   C12229702  -0.360   2.962   4.369  0.6580  0.4299  0.4570
   25HTM   C12329703  -0.496   2.946   4.415  0.4549  0.1237 -0.2403
   25HTM   C12429704  -0.513   2.840   4.499  0.1304 -0.2997 -0.8339
   25HTM    S1329705  -0.358   2.752   4.527  0.0549 -0.3451 -0.5558
   26TAL   C12529706  -0.622   3.014   4.345 -0.6731  0.0865  0.3978
   26TAL   C12629707  -0.607   3.154   4.288 -0.2397 -0.1503 -0.1777
   26TAL   C12729708  -0.734   3.232   4.245 -0.4025 -0.0731 -0.0394
   26TAL   C12829709  -0.692   3.354   4.156  0.0931  0.6074 -0.5327
   26TAL   C12929710  -0.798   3.429   4.071  0.1606  0.5584  0.8341
   26TAL   C13029711  -0.866   3.548   4.136 -0.6229  0.5060 -0.3946
   27HTM   C13129712  -0.630   2.770   4.548 -0.3335  0.4770 -0.5942
   27HTM   C13229713  -0.641   2.634   4.556  0.0334  0.4345 -0.7994
   27HTM   C13329714  -0.774   2.588   4.587  0.2618  0.0478 -0.3788
   27HTM   C13429715  -0.865   2.689   4.603  0.0691 -0.2045  0.1467
   27HTM    S1429716  -0.788   2.851   4.580 -0.4199  0.0285  0.1519
   28TAL   C13529717  -0.808   2.442   4.601 -0.1731  0.0796 -0.1159
   28TAL   C13629718  -0.766   2.348   4.492  0.4279 -0.0240 -0.0676
   28TAL   C13729719  -0.817   2.201   4.515 -0.3339 -0.1447 -0.3744
   28TAL   C13829720  -0.787   2.143   4.656  0.0504 -0.1135 -0.2364
   28TAL   C13929721  -0.842   1.997   4.657 -0.6748  1.0779  0.2337
   28TAL   C14029722  -0.817   1.926   4.790 -0.0049 -0.1840  0.4713
   29HTM   C14129723  -1.003   2.684   4.639  0.1973 -0.1880 -0.1903
   29HTM   C14229724  -1.065   2.738   4.748  0.3936 -0.2458 -0.0496
   29HTM   C14329725  -1.208   2.742   4.737  0.3812 -0.1184  0.1554
   29HTM   C14429726  -1.256   2.691   4.620  0.1753  0.0366  0.1716
   29HTM    S1529727  -1.122   2.634   4.513 -0.0206  0.0336 -0.0733
   30TAL   C14529728  -1.296   2.788   4.853 -0.0949  0.0967 -0.0690
   30TAL   C14629729  -1.311   2.939   4.891 -0.3124 -0.5764  0.5455
   30TAL   C14729730  -1.207   3.051   4.886  0.1281  0.0012  0.1439
   30TAL   C14829731  -1.078   3.031   4.951  0.5495  0.6872  0.0168
   30TAL   C14929732  -0.970   3.131   4.918  0.0167  0.3778  0.3926
   30TAL   C15029733  -0.845   3.122   4.999  0.2885 -0.1947  0.1701
   31HTM   C15129734  -1.389   2.668   4.574  0.1476 -0.2524 -0.4649
   31HTM   C15229735  -1.420   2.565   4.491 -0.1330 -0.3189 -0.2799
   31HTM   C15329736  -1.556   2.566   4.445 -0.3130 -0.4013  0.2429
   31HTM   C15429737  -1.629   2.670   4.492 -0.1693 -0.3975  0.4565
   31HTM    S1629738  -1.531   2.776   4.600  0.2065 -0.2888  0.0100
   32TAL   C15529739  -1.614   2.449   4.368  0.1340 -0.4565  0.2452
   32TAL   C15629740  -1.582   2.300   4.402  0.1636  0.6768  0.3130
   32TAL   C15729741  -1.443   2.242   4.399 -0.3086 -0.2830  0.1953
   32TAL   C15829742  -1.381   2.226   4.257  0.1699 -0.1618 -0.0882
   32TAL   C15929743  -1.230   2.197   4.254 -0.2167  0.5997  0.1246
   32TAL   C16029744  -1.136   2.304   4.310 -0.5661 -0.0270 -0.0139
   33HTM   C16129745  -1.768   2.710   4.475 -0.4608  0.5362  0.2499
   33HTM   C16229746  -1.835   2.797   4.557 -0.4988  1.1148 -0.3850
   33HTM   C16329747  -1.969   2.826   4.513 -0.4010  0.9801 -0.7761
   33HTM   C16429748  -2.004   2.763   4.397 -0.2886  0.2987 -0.4387
   33HTM    S1729749  -1.870   2.659   4.335 -0.2977 -0.2297  0.4046
   34TAL   C16529750  -2.056   2.914   4.600  0.3351  0.4020  0.2435
   34TAL   C16629751  -2.094   2.848   4.741  0.0506 -0.6205  0.4613
   34TAL   C16729752  -2.190   2.731   4.740  0.1063  0.4399  0.3278
   34TAL   C16829753  -2.199   2.660   4.879 -0.0199 -0.0952  0.3326
   34TAL   C16929754  -2.240   2.731   5.006 -0.2109 -0.0281  0.0312
   34TAL   C17029755  -2.390   2.774   5.003 -0.4342  0.7621 -0.4181
   35HTM   C17129756  -2.114   2.778   4.308 -0.0037  0.0666  0.1947
   35HTM   C17229757  -2.119   2.747   4.175  0.3140  0.7538  0.0169
   35HTM   C17329758  -2.249   2.762   4.117  0.4444  1.0139 -0.2103
   35HTM   C17429759  -2.345   2.804   4.204  0.2262  0.5251 -0.2058
   35HTM    S1829760  -2.276   2.830   4.369 -0.1636 -0.3083  0.0881
   36TAL   C17529761  -2.281   2.727   3.968 -0.0109  0.6388  0.5709
   36TAL   C17629762  -2.191   2.792   3.865 -0.0005  0.5133  0.2468
   36TAL   C17729763  -2.252   2.857   3.739 -0.0753 -0.6248 -0.0868
   36TAL   C17829764  -2.375   2.948   3.758  0.6071 -0.4402 -0.3773
   36TAL   C17929765  -2.379   3.044   3.880  0.5750 -0.1103 -0.0580
   36TAL   C18029766  -2.510   3.122   3.892 -0.2197  0.1036 -0.0242
   37HTM   C18129767  -2.494   2.806   4.189  0.1821 -0.3160  0.2344
   37HTM   C18229768  -2.587   2.708   4.173  0.1812 -0.3482  0.4365
   37HTM   C18329769  -2.722   2.757   4.163  0.1686 -0.3767  0.4666
   37HTM   C18429770  -2.732   2.893   4.171  0.1596 -0.3663  0.2876
   37HTM    S1929771  -2.570   2.970   4.192  0.1668 -0.3194  0.0649
   38TAL   C18529772  -2.840   2.664   4.143 -0.1308 -0.0665 -0.4843
   38TAL   C18629773  -2.866   2.576   4.271 -0.0152 -0.4627  0.4817
   38TAL   C18729774  -2.927   2.630   4.400 -0.3328 -0.3965 -0.2160
   38TAL   C18829775  -2.938   2.530   4.509 -0.5583  0.1017 -0.4427
   38TAL   C18929776  -3.011   2.587   4.631  0.2760  1.0521  0.3790
   38TAL   C19029777  -3.036   2.474   4.728  0.3484 -0.3096 -0.0730
   39HTM   C19129778  -2.850   2.983   4.154  0.1400 -0.1055 -0.1136
   39HTM   C19229779  -2.846   3.119   4.138  0.4582 -0.0749  0.1993
   39HTM   C19329780  -2.972   3.183   4.168  0.5810  0.1402  0.2484
   39HTM   C19429781  -3.070   3.098   4.206  0.3562  0.2734 -0.0267
   39HTM    S2029782  -3.012   2.927   4.208 -0.0310  0.1367 -0.3721
   40TAL   C19529783  -2.982   3.336   4.169  0.0560  0.1906  0.8756
   40TAL   C19629784  -2.873   3.402   4.259  0.3762 -0.3424  0.5954
   40TAL   C19729785  -2.898   3.554   4.259  0.3359 -0.6481 -0.5229
   40TAL   C19829786  -2.781   3.641   4.307  0.2921  0.1282  0.2254
   40TAL   C19929787  -2.816   3.784   4.293  0.1612 -0.1169  0.4597
   40TAL   C20029788  -2.718   3.870   4.356 -0.3902 -0.1466 -0.2543
   41HTM   C20129789  -3.205   3.125   4.252  0.2355  0.2103 -0.5341
   41HTM   C20229790  -3.242   3.219   4.344  0.0443  0.0528 -0.4492
   41HTM   C20329791  -3.384   3.237   4.354 -0.0055 -0.4169 -0.2601
   41HTM   C20429792  -3.456   3.158   4.270  0.1475 -0.6175 -0.2015
   41HTM    S2129793  -3.348   3.052   4.171  0.3680 -0.2256 -0.3814
   42TAL   C20529794  -3.442   3.334   4.462  0.1059  0.2397  0.5383
   42TAL   C20629795  -3.382   3.476   4.472 -0.0964 -0.1847  0.6247
   42TAL   C20729796  -3.411   3.586   4.373  0.1716  0.4734 -0.2643
   42TAL   C20829797  -3.549   3.618   4.340 -0.5821  0.5506 -0.3333
   42TAL   C20929798  -3.572   3.739   4.247 -0.0749 -0.5217 -0.0530
   42TAL   C21029799  -3.722   3.783   4.218 -0.6584 -0.7980  0.6954
   43HTM   C21129800  -3.597   3.154   4.247  0.3339  0.1896  0.0871
   43HTM   C21229801  -3.684   3.049   4.252  0.5012  0.0489  0.0386
   43HTM   C21329802  -3.822   3.087   4.241  0.4423 -0.1706  0.0095
   43HTM   C21429803  -3.841   3.222   4.228  0.2301 -0.1975  0.0356
   43HTM    S2229804  -3.684   3.311   4.228  0.0872  0.0545  0.0998
   44TAL   C21529805  -3.928   2.982   4.254 -0.0969  0.1761 -0.4421
   44TAL   C21629806  -3.998   2.981   4.393  0.1853  0.0630  0.3823
   44TAL   C21729807  -4.091   2.862   4.431  0.6376  0.1850 -0.4366
   44TAL   C21829808  -4.029   2.720   4.452 -0.0153 -0.1267  0.1804
   44TAL   C21929809  -3.920   2.702   4.552 -0.3344  0.1242 -0.8810
   44TAL   C22029810  -3.779   2.746   4.504 -0.1368  0.2575  1.0564
   45HTM   C22129811  -3.964   3.299   4.212 -0.0319  0.3519 -0.0455
   45HTM   C22229812  -3.973   3.435   4.214 -0.2127  0.3394  0.0336
   45HTM   C22329813  -4.106   3.484   4.188 -0.2906  0.1770  0.1221
   45HTM   C22429814  -4.198   3.386   4.167 -0.1697  0.0658  0.1103
   45HTM    S2329815  -4.124   3.222   4.178  0.0539  0.1581 -0.0141
   46TAL   C22529816  -4.126   3.636   4.178 -0.4092 -0.3029  0.0208
   46TAL   C22629817  -4.097   3.728   4.302 -0.0943  0.0244  0.8420
   46TAL   C22729818  -4.144   3.687   4.441  0.2833  0.0249 -0.0269
   46TAL   C22829819  -4.296   3.682   4.448 -0.3262 -0.5179  0.1372
   46TAL   C22929820  -4.346   3.654   4.579  0.3256  0.2685 -0.6802
   46TAL   C23029821  -4.499   3.672   4.602  0.0505 -0.0547  0.8807
   47HTM   C23129822  -4.337   3.395   4.129  0.1294 -0.0072 -0.2051
   47HTM   C23229823  -4.418   3.291   4.093  0.0124 -0.1239  0.3817
   47HTM   C23329824  -4.550   3.331   4.051 -0.1349 -0.2621  0.7045
   47HTM   C23429825  -4.569   3.466   4.055 -0.1306 -0.2509  0.3636
   47HTM    S2429826  -4.422   3.553   4.112  0.0617 -0.0635 -0.3973
   48TAL   C23529827  -4.654   3.239   3.991 -0.2371  0.5772 -0.0891
   48TAL   C23629828  -4.673   3.090   4.031 -0.0226 -0.0229  0.1552
   48TAL   C23729829  -4.787   3.017   3.968 -1.2591  0.2963  0.3453
   48TAL   C23829830  -4.803   2.875   4.008  0.9052 -0.4924 -0.8176
   48TAL   C23929831  -4.926   2.806   3.963  0.5956  1.1154 -0.2377
   48TAL   C24029832  -4.917   2.662   4.015  0.1959  0.0588  0.4388
    1HTM     C129833   4.380   6.475   5.835  0.2441 -0.1884 -0.1950
    1HTM     C229834   4.508   6.521   5.846  0.2587 -0.1807 -0.3979
    1HTM     C329835   4.608   6.420   5.818  0.2222 -0.2117 -0.4160
    1HTM     C429836   4.555   6.298   5.787  0.1797 -0.2432 -0.2273
    1HTM     S129837   4.375   6.301   5.789  0.1829 -0.2361 -0.0104
    2TAL     C529838   4.758   6.445   5.829 -0.0064 -0.1154 -0.4835
    2TAL     C629839   4.807   6.586   5.806 -0.6979  0.0212  0.3457
    2TAL     C729840   4.764   6.650   5.684  0.7854 -0.0388  1.0958
    2TAL     C829841   4.764   6.794   5.698  0.4750 -0.3208 -0.4313
    2TAL     C929842   4.897   6.861   5.737 -0.1155 -0.7621  0.3621
    2TAL    C1029843   4.896   7.016   5.743  0.1283  0.5771 -0.2741
    3HTM    C1129844   4.606   6.163   5.766  0.0607 -0.0920  0.5218
    3HTM    C1229845   4.530   6.050   5.766 -0.0157 -0.0408  0.6506
    3HTM    C1329846   4.605   5.929   5.750 -0.1342 -0.0837  0.4096
    3HTM    C1429847   4.740   5.949   5.738 -0.1481 -0.1678  0.0969
    3HTM     S229848   4.782   6.124   5.746 -0.0117 -0.1995  0.0824
    4TAL    C1529849   4.541   5.793   5.739 -0.2967 -0.5277 -0.0166
    4TAL    C1629850   4.383   5.777   5.731  0.3937 -0.8500 -0.6907
    4TAL    C1729851   4.342   5.635   5.711  0.0596 -0.2516  0.0036
    4TAL    C1829852   4.197   5.603   5.679 -0.1612  0.3181  0.1479
    4TAL    C1929853   4.149   5.644   5.539  0.3926  0.8826  0.5437
    4TAL    C2029854   3.997   5.642   5.527 -0.1774  0.4194 -0.3649
    5HTM    C2129855   4.854   5.857   5.726 -0.2505  0.1627 -0.0809
    5HTM    C2229856   4.865   5.739   5.659 -0.3335  0.0477  0.1056
    5HTM    C2329857   4.998   5.683   5.660 -0.3669 -0.0303  0.1707
    5HTM    C2429858   5.088   5.759   5.729 -0.3095  0.0257  0.0343
    5HTM     S329859   5.012   5.907   5.798 -0.2079  0.1818 -0.1890
    6TAL    C2529860   5.024   5.537   5.615  0.2944 -0.0013 -0.2078
    6TAL    C2629861   4.980   5.507   5.474  0.1218  0.1666 -0.4032
    6TAL    C2729862   5.001   5.367   5.425 -0.5694  0.0929 -0.7656
    6TAL    C2829863   4.987   5.366   5.273 -0.2067 -0.2763 -0.0104
    6TAL    C2929864   4.962   5.230   5.222 -0.2468  0.0754  0.4168
    6TAL    C3029865   4.953   5.220   5.066 -0.1033 -0.1238 -0.6198
    7HTM    C3129866   5.231   5.747   5.734  0.0178 -0.6214 -0.3030
    7HTM    C3229867   5.312   5.638   5.737  0.3242 -0.3893 -0.0923
    7HTM    C3329868   5.453   5.670   5.744  0.2253  0.0143  0.0613
    7HTM    C3429869   5.478   5.804   5.746 -0.1566  0.0901 -0.0320
    7HTM     S429870   5.326   5.900   5.739 -0.4229 -0.3464 -0.3236
    8TAL    C3529871   5.561   5.564   5.744  0.7311  0.1000  0.3417
    8TAL    C3629872   5.513   5.421   5.728  0.3481  0.4345 -0.5185
    8TAL    C3729873   5.622   5.319   5.716 -0.2978  0.5022 -0.6447
    8TAL    C3829874   5.565   5.188   5.665 -0.4523  0.3900 -0.3106
    8TAL    C3929875   5.667   5.078   5.647  0.3830  0.2776 -0.6959
    8TAL    C4029876   5.763   5.113   5.533  0.2154 -0.0112 -0.4088
    9HTM    C4129877   5.595   5.884   5.738 -0.4067 -0.1072  0.5549
    9HTM    C4229878   5.617   5.993   5.659 -0.6516 -0.0055  0.6249
    9HTM    C4329879   5.754   6.037   5.658 -0.6294 -0.0732  0.1709
    9HTM    C4429880   5.836   5.962   5.737 -0.3680 -0.2271 -0.2449
    9HTM     S529881   5.746   5.829   5.818 -0.1274 -0.2986 -0.0947
   10TAL    C4529882   5.800   6.153   5.568  0.2413 -1.2935 -0.3684
   10TAL    C4629883   5.734   6.289   5.585  0.3002 -0.4701  0.8115
   10TAL    C4729884   5.798   6.369   5.695  0.2859  0.4799 -0.2695
   10TAL    C4829885   5.756   6.514   5.695  0.0371  0.2534  0.5817
   10TAL    C4929886   5.805   6.588   5.817 -0.5962  0.3682  0.3050
   10TAL    C5029887   5.766   6.729   5.791 -0.1789 -0.7410 -0.7514
   11HTM    C5129888   5.985   5.964   5.756 -0.2775  0.0730 -0.2226
   11HTM    C5229889   6.059   5.863   5.809 -0.4020  0.0875 -0.0179
   11HTM    C5329890   6.201   5.889   5.809 -0.3848 -0.0100  0.0963
   11HTM    C5429891   6.235   6.010   5.757 -0.2464 -0.0981 -0.0210
   11HTM     S629892   6.089   6.102   5.702 -0.1267 -0.0655 -0.2871
   12TAL    C5529893   6.304   5.786   5.868  0.0704 -0.2746  0.3302
   12TAL    C5629894   6.258   5.645   5.867 -0.1597 -0.1529  0.2008
   12TAL    C5729895   6.287   5.575   5.736 -0.0457 -0.2422 -0.4450
   12TAL    C5829896   6.439   5.554   5.708  0.4352  0.3136 -0.0798
   12TAL    C5929897   6.440   5.508   5.569  0.1844  0.0722  0.2487
   12TAL    C6029898   6.581   5.478   5.522  0.3934  0.1558  0.2715
   13HTM    C6129899   6.362   6.073   5.748 -0.1182  0.2340 -0.0053
   13HTM    C6229900   6.476   6.023   5.694 -0.0253  0.2382  0.1857
   13HTM    C6329901   6.592   6.105   5.715 -0.0951  0.3226  0.2394
   13HTM    C6429902   6.567   6.219   5.785 -0.2408  0.3824  0.0896
   13HTM     S729903   6.392   6.231   5.831 -0.3019  0.3367 -0.1329
   14TAL    C6529904   6.722   6.076   5.642 -1.0392  0.3381  0.4899
   14TAL    C6629905   6.800   5.944   5.660  0.7595 -0.4265 -0.0156
   14TAL    C6729906   6.848   5.905   5.799 -0.1034  0.7436  0.1946
   14TAL    C6829907   6.907   5.765   5.813 -0.0154  0.2328  0.2780
   14TAL    C6929908   6.820   5.642   5.787 -0.0775  0.3753 -0.2142
   14TAL    C7029909   6.901   5.514   5.803 -0.3640  0.2568 -0.1939
   15HTM    C7129910   6.653   6.316   5.844  0.2621 -0.0849  0.3873
   15HTM    C7229911   6.731   6.282   5.950 -0.1330 -0.1276  0.6618
   15HTM    C7329912   6.769   6.394   6.033 -0.2775 -0.1347  0.7386
   15HTM    C7429913   6.720   6.513   5.989  0.0075 -0.0972  0.5227
   15HTM     S829914   6.622   6.494   5.839  0.4843 -0.0498  0.2030
   16TAL    C7529915   6.844   6.369   6.163  0.0257  0.1415  0.4238
   16TAL    C7629916   6.808   6.240   6.236 -0.6524  0.1570 -0.8783
   16TAL    C7729917   6.887   6.227   6.371 -0.1407 -0.2841  0.2519
   16TAL    C7829918   7.036   6.225   6.382 -0.5268 -0.1259 -0.0432
   16TAL    C7929919   7.110   6.350   6.421  0.6704 -0.1133 -0.7541
   16TAL    C8029920   7.261   6.321   6.433  0.4185 -0.0824  0.3866
   17HTM    C8129921   6.742   6.647   6.042  0.1967  0.0670 -0.0174
   17HTM    C8229922   6.805   6.688   6.155  0.0317  0.1302  0.0520
   17HTM    C8329923   6.812   6.831   6.169 -0.2015  0.1366  0.1020
   17HTM    C8429924   6.754   6.899   6.066 -0.2145  0.0782  0.0712
   17HTM     S929925   6.685   6.786   5.943  0.0689  0.0101 -0.0244
   18TAL    C8529926   6.878   6.908   6.283 -0.2677 -0.2753 -0.2586
   18TAL    C8629927   6.940   6.842   6.408  0.6828 -0.1928 -0.3496
   18TAL    C8729928   7.061   6.753   6.392  0.0983 -0.1941 -0.2238
   18TAL    C8829929   7.177   6.838   6.339  0.1958 -0.6896  0.8599
   18TAL    C8929930   7.292   6.754   6.295 -0.3734 -0.4180  1.2932
   18TAL    C9029931   7.406   6.835   6.231  0.1802  0.0978  0.3962
   19HTM    C9129932   6.747   7.047   6.031  0.4258  0.1236 -0.4003
   19HTM    C9229933   6.702   7.094   5.911  0.4935  0.2017 -0.3948
   19HTM    C9329934   6.684   7.237   5.909  0.1814  0.1667 -0.2093
   19HTM    C9429935   6.715   7.298   6.026 -0.1250  0.0615 -0.0738
   19HTM    S1029936   6.769   7.180   6.151 -0.0421 -0.0012 -0.1699
   20TAL    C9529937   6.644   7.302   5.776 -0.0106  0.4480  0.5073
   20TAL    C9629938   6.560   7.224   5.673 -0.5119 -0.7544 -0.0484
   20TAL    C9729939   6.505   7.306   5.564  0.1914 -0.0136  0.0989
   20TAL    C9829940   6.418   7.221   5.467 -0.0408  0.0860  0.1798
   20TAL    C9929941   6.268   7.226   5.495 -0.4156  0.0803  0.5084
   20TAL   C10029942   6.195   7.355   5.482 -0.3689  0.1203  0.6686
   21HTM   C10129943   6.691   7.433   6.067  0.4088 -0.0382 -0.2823
   21HTM   C10229944   6.715   7.482   6.191  0.8345 -0.0994 -0.3386
   21HTM   C10329945   6.679   7.621   6.207  0.8495 -0.1185 -0.1345
   21HTM   C10429946   6.627   7.677   6.094  0.4352 -0.0716  0.0770
   21HTM    S1129947   6.620   7.559   5.958 -0.0096  0.0009  0.0354
   22TAL   C10529948   6.704   7.692   6.347  0.2775  0.1430  0.2203
   22TAL   C10629949   6.764   7.830   6.344  0.7192 -0.1433  0.2302
   22TAL   C10729950   6.771   7.906   6.476  0.6164  0.0763  0.0926
   22TAL   C10829951   6.815   8.054   6.461 -0.3405 -0.0170  0.3755
   22TAL   C10929952   6.737   8.142   6.359  0.1593  0.6603 -0.1562
   22TAL   C11029953   6.758   8.292   6.369  0.7901 -0.6380 -0.0126
   23HTM   C11129954   6.577   7.814   6.068 -0.6423 -0.4406 -0.3805
   23HTM   C11229955   6.602   7.880   5.951 -0.7455 -0.4086 -0.3843
   23HTM   C11329956   6.533   8.006   5.940 -0.4339 -0.2131 -0.1159
   23HTM   C11429957   6.457   8.037   6.048 -0.0931 -0.0970  0.0929
   23HTM    S1229958   6.465   7.908   6.174 -0.1397 -0.2245 -0.0347
   24TAL   C11529959   6.552   8.090   5.812  0.1372 -0.6224 -0.1672
   24TAL   C11629960   6.666   8.188   5.802 -0.3492  0.0492  0.6245
   24TAL   C11729961   6.692   8.296   5.909  0.4760 -0.4750  0.0578
   24TAL   C11829962   6.827   8.357   5.919 -0.2083  0.4994 -0.1682
   24TAL   C11929963   6.867   8.430   5.798  0.8504 -0.4647 -0.1737
   24TAL   C12029964   7.012   8.481   5.806  0.1567  0.0856  0.1002
   25HTM   C12129965   6.362   8.149   6.072 -0.3369 -0.0008  0.3092
   25HTM   C12229966   6.392   8.250   6.159 -0.2449  0.0539  0.2129
   25HTM   C12329967   6.294   8.356   6.162 -0.0837  0.2108  0.0148
   25HTM   C12429968   6.189   8.335   6.078 -0.0528  0.2760 -0.0405
   25HTM    S1329969   6.206   8.179   5.988 -0.2262  0.1435  0.1554
   26TAL   C12529970   6.315   8.481   6.245  0.0150  0.4239 -0.5182
   26TAL   C12629971   6.454   8.513   6.295 -0.3876  0.7498 -0.2890
   26TAL   C12729972   6.456   8.602   6.410  0.0672  0.1624 -0.8456
   26TAL   C12829973   6.584   8.590   6.496 -0.3310 -0.0481 -0.0304
   26TAL   C12929974   6.614   8.676   6.617  0.2471 -0.1330  0.2437
   26TAL   C13029975   6.498   8.698   6.725 -0.3097  0.3301 -0.3052
   27HTM   C13129976   6.063   8.409   6.053 -0.2735 -0.0374 -0.0288
   27HTM   C13229977   6.010   8.513   6.123 -0.4764 -0.1707  0.0176
   27HTM   C13329978   5.881   8.555   6.077 -0.5114 -0.3333 -0.0319
   27HTM   C13429979   5.834   8.483   5.971 -0.3351 -0.3241 -0.1165
   27HTM    S1429980   5.952   8.355   5.921 -0.1096 -0.1076 -0.1394
   28TAL   C13529981   5.804   8.654   6.163  0.1074  0.2994  0.4484
   28TAL   C13629982   5.740   8.599   6.292 -0.0678 -0.3603 -0.3136
   28TAL   C13729983   5.603   8.535   6.262 -0.3655 -0.1748 -0.2416
   28TAL   C13829984   5.547   8.426   6.355 -0.7128  0.1883  0.4100
   28TAL   C13929985   5.503   8.477   6.492 -0.4775 -0.2053  0.4955
   28TAL   C14029986   5.405   8.379   6.567 -0.2657  0.1320 -0.6041
   29HTM   C14129987   5.710   8.472   5.909  0.0491  0.0396 -0.3209
   29HTM   C14229988   5.654   8.354   5.869 -0.0470  0.0544 -0.2339
   29HTM   C14329989   5.517   8.366   5.828 -0.1101  0.0916 -0.0119
   29HTM   C14429990   5.467   8.492   5.837 -0.0625  0.1043  0.0709
   29HTM    S1529991   5.591   8.608   5.899  0.0674  0.0705 -0.1267
   30TAL   C14529992   5.438   8.241   5.794 -0.2983  0.5322  0.1809
   30TAL   C14629993   5.447   8.204   5.648 -0.2601 -0.0323  0.5404
   30TAL   C14729994   5.367   8.085   5.593 -0.6067  0.0694 -0.5368
   30TAL   C14829995   5.212   8.093   5.619 -0.5207  0.4624  0.4555
   30TAL   C14929996   5.135   8.207   5.547  0.2667  0.0947 -0.1377
   30TAL   C15029997   5.004   8.227   5.619  0.2336  0.2896 -0.2919
   31HTM   C15129998   5.334   8.537   5.797  0.0185 -0.4473 -0.0178
   31HTM   C15229999   5.295   8.606   5.687  0.0727 -0.6862 -0.1872
   31HTM   C15330000   5.153   8.626   5.679  0.0854 -0.6227 -0.2551
   31HTM   C15430001   5.084   8.573   5.784  0.0410 -0.3366 -0.1375
   31HTM    S1630002   5.194   8.492   5.901 -0.0210 -0.1230  0.0695
   32TAL   C15530003   5.093   8.695   5.556  0.6306 -0.3800  0.0057
   32TAL   C15630004   5.174   8.791   5.468 -0.2152  0.5389  0.5054
   32TAL   C15730005   5.095   8.813   5.343 -0.1380 -0.5717 -0.3436
   32TAL   C15830006   5.165   8.898   5.243 -0.4212 -0.9315 -0.3642
   32TAL   C15930007   5.297   8.838   5.173  0.3286 -0.3528 -0.1566
   32TAL   C16030008   5.389   8.945   5.117 -0.0051  0.4407  0.3540
   33HTM   C16130009   4.944   8.586   5.832  0.1168 -0.2307 -0.1454
   33HTM   C16230010   4.913   8.632   5.957  0.1967  0.2565 -0.2997
   33HTM   C16330011   4.771   8.645   5.980  0.2191  0.5569 -0.3362
   33HTM   C16430012   4.695   8.610   5.872  0.1566  0.3000 -0.2097
   33HTM    S1730013   4.796   8.557   5.733  0.0637 -0.3471 -0.0333
   34TAL   C16530014   4.724   8.701   6.115 -0.1040  0.3176 -0.2833
   34TAL   C16630015   4.807   8.796   6.205 -0.0459  0.1128 -0.7227
   34TAL   C16730016   4.761   8.840   6.341 -0.1433  0.0639  0.0742
   34TAL   C16830017   4.633   8.920   6.325  0.0926 -0.2284 -0.3790
   34TAL   C16930018   4.595   8.970   6.466 -0.5297 -0.2093  0.3510
   34TAL   C17030019   4.474   9.052   6.464  0.1277  0.3684  0.1502
   35HTM   C17130020   4.549   8.604   5.848 -0.0558 -0.3120 -0.3775
   35HTM   C17230021   4.450   8.616   5.941  0.0534  0.1140 -0.3128
   35HTM   C17330022   4.317   8.608   5.885 -0.0196  0.6261 -0.2191
   35HTM   C17430023   4.315   8.590   5.750 -0.1839  0.5901 -0.2119
   35HTM    S1830024   4.481   8.582   5.682 -0.2604 -0.0979 -0.3239
   36TAL   C17530025   4.194   8.606   5.972  0.2734  0.5513 -0.4739
   36TAL   C17630026   4.153   8.727   6.051 -0.1568  0.3053  0.0293
   36TAL   C17730027   4.141   8.851   5.960  0.4951 -0.2367 -0.2341
   36TAL   C17830028   4.159   8.980   6.025  1.1347 -0.6179 -0.4193
   36TAL   C17930029   4.282   9.002   6.107  0.4037  0.1449 -0.1539
   36TAL   C18030030   4.312   9.151   6.123 -0.0555  0.4263 -0.4385
   37HTM   C18130031   4.204   8.581   5.660  0.2553 -0.1741  0.3121
   37HTM   C18230032   4.177   8.658   5.551  0.5460 -0.0448  0.3307
   37HTM   C18330033   4.053   8.626   5.486  0.6845  0.0763 -0.0002
   37HTM   C18430034   3.985   8.524   5.547  0.4996  0.0391 -0.2711
   37HTM    S1930035   4.074   8.461   5.690  0.1331 -0.1536 -0.1281
   38TAL   C18530036   3.993   8.705   5.375 -0.9412 -0.0219  0.1317
   38TAL   C18630037   4.078   8.737   5.253  0.4941 -0.5445  0.2802
   38TAL   C18730038   4.174   8.861   5.256  0.6625  0.4480 -0.3716
   38TAL   C18830039   4.114   8.998   5.267  0.1373 -0.2647 -0.6644
   38TAL   C18930040   4.214   9.099   5.235  0.0274 -0.1745  0.2575
   38TAL   C19030041   4.148   9.237   5.206 -0.4941 -0.3984  0.1515
   39HTM   C19130042   3.859   8.455   5.521 -0.0888 -0.2495  0.2099
   39HTM   C19230043   3.853   8.324   5.486 -0.3406 -0.2203  0.1395
   39HTM   C19330044   3.718   8.274   5.471 -0.4361  0.0448  0.1113
   39HTM   C19430045   3.622   8.368   5.494 -0.2570  0.2172  0.1596
   39HTM    S2030046   3.694   8.528   5.537  0.0484  0.0575  0.2456
   40TAL   C19530047   3.695   8.136   5.407 -0.2300 -0.5372 -0.2256
   40TAL   C19630048   3.705   8.041   5.529 -0.2832 -0.2965 -0.4283
   40TAL   C19730049   3.661   7.903   5.505 -0.3039 -0.0733  0.7234
   40TAL   C19830050   3.511   7.870   5.516  0.2311  0.4228  0.1515
   40TAL   C19930051   3.428   7.935   5.629 -0.0230  0.5009  0.1803
   40TAL   C20030052   3.304   7.848   5.655  0.6620 -0.3967  0.4964
   41HTM   C20130053   3.482   8.357   5.465  0.0827  0.0525 -0.2822
   41HTM   C20230054   3.404   8.245   5.466  0.4057 -0.1783 -0.7248
   41HTM   C20330055   3.270   8.267   5.420  0.2972 -0.3524 -0.4940
   41HTM   C20430056   3.245   8.397   5.384 -0.1085 -0.2558  0.1243
   41HTM    S2130057   3.391   8.501   5.406 -0.3872  0.0670  0.4664
   42TAL   C20530058   3.172   8.153   5.405 -0.4391  0.4767 -0.0359
   42TAL   C20630059   3.215   8.023   5.331 -0.3426  0.2230 -0.7079
   42TAL   C20730060   3.115   7.907   5.336  0.0304  0.3453 -0.4907
   42TAL   C20830061   3.167   7.792   5.253 -0.0827 -0.1880 -0.1135
   42TAL   C20930062   3.065   7.679   5.252 -0.2155  0.2681  0.7149
   42TAL   C21030063   3.090   7.604   5.123  0.0901  0.1024 -0.6657
   43HTM   C21130064   3.113   8.450   5.344 -0.0177 -0.1607  0.2341
   43HTM   C21230065   3.057   8.563   5.395 -0.0489 -0.1626  0.2053
   43HTM   C21330066   2.925   8.590   5.345  0.0024 -0.1326  0.0868
   43HTM   C21430067   2.880   8.497   5.256  0.0724 -0.1071  0.0248
   43HTM    S2230068   3.003   8.367   5.228  0.0793 -0.1200  0.1126
   44TAL   C21530069   2.839   8.701   5.409  0.1259  0.6410  0.3913
   44TAL   C21630070   2.907   8.838   5.408  0.9960 -0.7115 -0.2906
   44TAL   C21730071   2.819   8.931   5.496  0.6547 -0.3301 -0.1890
   44TAL   C21830072   2.848   9.077   5.520  0.2982 -0.2502 -0.3470
   44TAL   C21930073   2.717   9.129   5.577 -0.2216  0.7752  0.4966
   44TAL   C22030074   2.721   9.282   5.599  0.3171  0.3406  0.4525
   45HTM   C22130075   2.748   8.474   5.190 -0.5831  0.2541  0.1701
   45HTM   C22230076   2.704   8.357   5.136 -0.6605  0.0606  0.6468
   45HTM   C22330077   2.571   8.366   5.081 -0.6655 -0.0815  0.6363
   45HTM   C22430078   2.514   8.489   5.094 -0.5919  0.0028  0.1516
   45HTM    S2330079   2.625   8.605   5.176 -0.5100  0.2706 -0.3331
   46TAL   C22530080   2.521   8.237   5.023 -0.6340 -0.4958  0.8364
   46TAL   C22630081   2.412   8.175   5.112 -0.2487 -0.0453 -0.4417
   46TAL   C22730082   2.335   8.060   5.062 -0.2527 -0.4257  1.0591
   46TAL   C22830083   2.227   8.010   5.159  0.1803  0.0594 -0.3404
   46TAL   C22930084   2.104   8.096   5.173 -0.3790  0.2662 -0.0906
   46TAL   C23030085   2.022   8.033   5.284  0.4153  0.4474  0.4137
   47HTM   C23130086   2.380   8.542   5.054  0.1488 -0.0140 -0.3147
   47HTM   C23230087   2.331   8.663   5.094  0.0604  0.0310 -0.5567
   47HTM   C23330088   2.195   8.688   5.052  0.0595 -0.1302 -0.6495
   47HTM   C23430089   2.140   8.585   4.981  0.1476 -0.2984 -0.4783
   47HTM    S2430090   2.257   8.449   4.960  0.2388 -0.2649 -0.1842
   48TAL   C23530091   2.136   8.825   5.083  0.3016  0.1800 -0.0175
   48TAL   C23630092   1.999   8.858   5.016  0.4129  0.2765  0.5292
   48TAL   C23730093   1.964   9.005   5.026  0.4294 -0.6002  0.2004
   48TAL   C23830094   2.004   9.085   4.895  0.3591 -0.2669 -0.0197
   48TAL   C23930095   2.012   9.239   4.903 -0.2098  0.0813 -0.3602
   48TAL   C24030096   1.891   9.323   4.928  0.0415  0.0419  0.1223
    1HTM     C130097   0.811   1.875   3.888 -0.1002  0.1680  0.4312
    1HTM     C230098   0.874   1.756   3.870  0.1222  0.2667  0.5563
    1HTM     C330099   0.785   1.643   3.862  0.3071  0.1366  0.2956
    1HTM     C430100   0.653   1.677   3.874  0.2257 -0.0616 -0.0283
    1HTM     S130101   0.632   1.855   3.897 -0.0933 -0.0993 -0.0294
    2TAL     C530102   0.830   1.500   3.848 -0.2886  0.0217 -0.1584
    2TAL     C630103   0.982   1.471   3.821 -0.6273  0.4130 -0.1961
    2TAL     C730104   1.025   1.326   3.817  0.1959  0.0215  0.4023
    2TAL     C830105   0.982   1.221   3.924 -0.1892 -0.3894  0.0509
    2TAL     C930106   1.001   1.274   4.070 -0.0855  0.7736 -0.4051
    2TAL    C1030107   1.134   1.227   4.120  0.0253  0.3910 -0.4927
    3HTM    C1130108   0.529   1.609   3.872  0.3580 -0.1969 -0.0573
    3HTM    C1230109   0.413   1.663   3.825  0.4472 -0.2078 -0.2905
    3HTM    C1330110   0.302   1.571   3.829  0.4237 -0.1845 -0.4143
    3HTM    C1430111   0.333   1.448   3.879  0.3167 -0.1556 -0.2756
    3HTM     S230112   0.507   1.439   3.926  0.2365 -0.1559  0.0242
    4TAL    C1530113   0.173   1.613   3.775  0.1818 -0.0967  0.1089
    4TAL    C1630114   0.082   1.692   3.859  0.1868 -0.1335 -0.6638
    4TAL    C1730115  -0.058   1.709   3.814 -0.7452 -0.8513 -0.1128
    4TAL    C1830116  -0.149   1.588   3.827 -0.3945  0.0471 -0.4660
    4TAL    C1930117  -0.275   1.602   3.747  0.3432  0.3919 -0.2742
    4TAL    C2030118  -0.371   1.483   3.732 -0.2821 -0.0376 -0.3600
    5HTM    C2130119   0.263   1.321   3.892 -0.0968  0.0109 -0.2685
    5HTM    C2230120   0.129   1.303   3.900 -0.0881  0.0064 -0.1307
    5HTM    C2330121   0.089   1.166   3.919 -0.0637  0.0058 -0.0854
    5HTM    C2430122   0.195   1.079   3.926 -0.0539  0.0097 -0.1886
    5HTM     S330123   0.352   1.165   3.908 -0.0748  0.0147 -0.3524
    6TAL    C2530124  -0.058   1.135   3.947  0.0884  0.4276  0.0697
    6TAL    C2630125  -0.143   1.168   3.832 -0.0219  0.4984 -0.4429
    6TAL    C2730126  -0.293   1.137   3.873 -0.2995  0.5854 -0.8957
    6TAL    C2830127  -0.394   1.141   3.765  0.3505  0.1339  0.0928
    6TAL    C2930128  -0.541   1.115   3.804 -0.3175 -0.4652 -0.6123
    6TAL    C3030129  -0.628   1.109   3.686 -1.0883  0.0616 -0.2096
    7HTM    C3130130   0.200   0.933   3.936  0.4419 -0.0047 -0.1624
    7HTM    C3230131   0.312   0.862   3.967  0.1470 -0.2664  0.3307
    7HTM    C3330132   0.287   0.725   4.003 -0.3513 -0.1400  0.4644
    7HTM    C3430133   0.155   0.691   4.000 -0.4363  0.2181  0.0732
    7HTM     S430134   0.052   0.831   3.951  0.1105  0.4251 -0.4990
    8TAL    C3530135   0.410   0.634   4.044 -0.0168  0.3387  0.3843
    8TAL    C3630136   0.521   0.702   4.128  0.0477  0.6617 -0.7435
    8TAL    C3730137   0.633   0.599   4.130 -0.5007 -0.1581  0.5278
    8TAL    C3830138   0.743   0.625   4.236 -0.5172  0.2956  0.2950
    8TAL    C3930139   0.784   0.498   4.312  0.6655  0.5400 -0.3525
    8TAL    C4030140   0.882   0.522   4.421 -0.0974  0.6132  0.0296
    9HTM    C4130141   0.093   0.557   4.014  0.0543 -0.0402  0.1621
    9HTM    C4230142  -0.032   0.538   4.063 -0.1020  0.0139 -0.2139
    9HTM    C4330143  -0.072   0.399   4.068 -0.2241  0.0394 -0.4449
    9HTM    C4430144   0.024   0.313   4.023 -0.1606  0.0048 -0.2455
    9HTM     S530145   0.172   0.401   3.970  0.0598 -0.0632  0.2537
   10TAL    C4530146  -0.205   0.359   4.122 -0.3562 -0.2308 -0.2235
   10TAL    C4630147  -0.325   0.391   4.027 -0.1038 -0.1408  0.1740
   10TAL    C4730148  -0.345   0.299   3.906 -0.6572  0.2037  0.2221
   10TAL    C4830149  -0.365   0.150   3.930  0.0948 -0.3045 -0.0701
   10TAL    C4930150  -0.484   0.091   4.007  0.0424 -0.3324 -0.4297
   10TAL    C5030151  -0.458  -0.047   4.055  0.3027 -0.8844  0.2896
   11HTM    C5130152   0.033   0.169   4.009  0.3486  0.0831  0.4222
   11HTM    C5230153   0.065   0.111   3.890  0.3499  0.2132  0.3591
   11HTM    C5330154   0.038  -0.030   3.885  0.1397  0.2599  0.1271
   11HTM    C5430155  -0.015  -0.080   4.000 -0.0217  0.1659  0.0131
   11HTM     S630156  -0.035   0.049   4.125  0.0802  0.0093  0.1912
   12TAL    C5530157   0.051  -0.105   3.756 -0.2047 -0.1802  0.3536
   12TAL    C5630158  -0.031  -0.077   3.631 -0.2089  0.2921  0.6451
   12TAL    C5730159  -0.182  -0.058   3.659 -0.4170 -0.4076  0.0928
   12TAL    C5830160  -0.266  -0.175   3.713 -0.3763  0.7296 -0.3240
   12TAL    C5930161  -0.281  -0.303   3.630  0.5049  0.0480 -0.3716
   12TAL    C6030162  -0.402  -0.370   3.686  0.3840 -0.3526  0.1100
   13HTM    C6130163  -0.061  -0.211   4.032 -0.6073 -0.2730 -0.5972
   13HTM    C6230164  -0.189  -0.236   4.072 -0.7272 -0.3490 -1.0300
   13HTM    C6330165  -0.224  -0.375   4.074 -0.5903 -0.3819 -0.9575
   13HTM    C6430166  -0.122  -0.458   4.036 -0.3657 -0.3310 -0.4701
   13HTM     S730167   0.027  -0.365   3.995 -0.3096 -0.2366 -0.0612
   14TAL    C6530168  -0.366  -0.423   4.099  0.3853  0.2297 -0.1988
   14TAL    C6630169  -0.406  -0.450   4.249 -0.6887  0.4499  0.1058
   14TAL    C6730170  -0.331  -0.542   4.350  0.0664  0.0191  1.0734
   14TAL    C6830171  -0.188  -0.518   4.378 -0.8999 -0.3173  0.4856
   14TAL    C6930172  -0.137  -0.627   4.472  0.6468 -0.6725 -0.9989
   14TAL    C7030173   0.005  -0.601   4.519 -0.3478  0.8328  0.0314
   15HTM    C7130174  -0.111  -0.601   4.019  0.8364  0.0438 -0.4425
   15HTM    C7230175  -0.010  -0.681   4.063  0.9322 -0.0715 -0.8667
   15HTM    C7330176  -0.029  -0.820   4.032  0.5331 -0.0806 -0.5980
   15HTM    C7430177  -0.144  -0.846   3.964  0.1341  0.0286  0.0305
   15HTM     S830178  -0.239  -0.696   3.934  0.2309  0.1515  0.3346
   16TAL    C7530179   0.064  -0.913   4.103  0.1225  0.1630 -0.4466
   16TAL    C7630180   0.206  -0.931   4.043  0.0103 -0.4021  0.1442
   16TAL    C7730181   0.229  -0.998   3.907  0.2199  0.4688  0.9032
   16TAL    C7830182   0.230  -1.146   3.912  0.3749  0.5132  0.2087
   16TAL    C7930183   0.276  -1.216   3.784  0.0946  0.2318  0.2101
   16TAL    C8030184   0.325  -1.362   3.799  0.2030  0.3140  0.3424
   17HTM    C8130185  -0.198  -0.970   3.899 -0.5586  0.2073 -0.0336
   17HTM    C8230186  -0.320  -0.987   3.841 -0.7796  0.0372  0.4748
   17HTM    C8330187  -0.348  -1.123   3.804 -0.6876  0.0179  0.4761
   17HTM    C8430188  -0.247  -1.210   3.835 -0.3961  0.1732 -0.0311
   17HTM     S930189  -0.108  -1.125   3.913 -0.2142  0.3583 -0.5541
   18TAL    C8530190  -0.482  -1.169   3.746  0.6897 -0.8034  0.5675
   18TAL    C8630191  -0.592  -1.158   3.852  0.3597 -0.8477 -0.1156
   18TAL    C8730192  -0.730  -1.183   3.794  0.1370  0.0047  0.1154
   18TAL    C8830193  -0.838  -1.229   3.890 -0.6613 -0.3795 -0.0591
   18TAL    C8930194  -0.888  -1.135   4.000 -0.4106 -0.1855 -0.2922
   18TAL    C9030195  -1.004  -1.196   4.078  0.2068 -0.2190  0.1559
   19HTM    C9130196  -0.227  -1.353   3.800 -0.1671 -0.0325  0.2694
   19HTM    C9230197  -0.317  -1.450   3.763 -0.0529 -0.0260 -0.0296
   19HTM    C9330198  -0.258  -1.580   3.747  0.0749  0.0632 -0.2902
   19HTM    C9430199  -0.124  -1.584   3.772  0.0582  0.1245 -0.1901
   19HTM    S1030200  -0.061  -1.421   3.817 -0.1212  0.0741  0.2445
   20TAL    C9530201  -0.340  -1.700   3.716 -0.4998  1.0387 -0.2152
   20TAL    C9630202  -0.470  -1.740   3.793 -0.4315 -0.1895  0.1864
   20TAL    C9730203  -0.558  -1.846   3.724 -0.3756 -0.1941 -0.6092
   20TAL    C9830204  -0.487  -1.980   3.703  0.1109  0.1983  0.1589
   20TAL    C9930205  -0.569  -2.088   3.640 -0.3553  0.2686 -0.2799
   20TAL   C10030206  -0.646  -2.176   3.735  0.3938 -0.6649 -0.0265
   21HTM   C10130207  -0.019  -1.688   3.769 -0.3145  0.0513  0.2657
   21HTM   C10230208   0.116  -1.674   3.754 -0.3324  0.2761  0.3213
   21HTM   C10330209   0.188  -1.799   3.755 -0.1359  0.3889  0.2482
   21HTM   C10430210   0.108  -1.908   3.771  0.0323  0.2498  0.1368
   21HTM    S1130211  -0.065  -1.862   3.786 -0.0460 -0.0365  0.1158
   22TAL   C10530212   0.339  -1.803   3.732 -0.5665 -0.4791 -0.0894
   22TAL   C10630213   0.436  -1.711   3.804  0.3213  0.2678 -0.5404
   22TAL   C10730214   0.573  -1.748   3.778 -0.5649 -0.3132 -0.0635
   22TAL   C10830215   0.684  -1.684   3.868  0.0264 -0.1008  0.3485
   22TAL   C10930216   0.671  -1.532   3.894 -0.3902 -0.4768  0.0543
   22TAL   C11030217   0.785  -1.460   3.969 -0.2954  0.1992  0.2190
   23HTM   C11130218   0.141  -2.052   3.776 -0.2604 -0.1127 -0.4863
   23HTM   C11230219   0.250  -2.122   3.733 -0.3976 -0.2186 -0.6642
   23HTM   C11330220   0.246  -2.262   3.765 -0.4081 -0.1843 -0.5145
   23HTM   C11430221   0.133  -2.300   3.832 -0.2789 -0.0524 -0.2225
   23HTM    S1230222   0.023  -2.159   3.861 -0.1328  0.0397 -0.1130
   24TAL   C11530223   0.356  -2.362   3.736  0.7075 -0.0411  0.5123
   24TAL   C11630224   0.485  -2.317   3.666 -0.3068 -0.1857 -0.2427
   24TAL   C11730225   0.573  -2.434   3.647  0.0293 -0.6151  0.5208
   24TAL   C11830226   0.697  -2.394   3.556 -0.0326  0.1296 -0.0461
   24TAL   C11930227   0.782  -2.516   3.532 -0.1001 -0.2622  0.4768
   24TAL   C12030228   0.916  -2.469   3.478 -0.5074  0.2316  0.5488
   25HTM   C12130229   0.091  -2.422   3.891  0.0092  0.0401 -0.1067
   25HTM   C12230230   0.165  -2.495   3.979 -0.1048  0.2470  0.1627
   25HTM   C12330231   0.097  -2.611   4.030 -0.2192  0.4382  0.4535
   25HTM   C12430232  -0.029  -2.627   3.980 -0.1923  0.3778  0.4059
   25HTM    S1330233  -0.072  -2.495   3.865 -0.0194  0.0720 -0.0132
   26TAL   C12530234   0.168  -2.699   4.132 -0.1207  0.3130 -0.0452
   26TAL   C12630235   0.220  -2.637   4.262  0.4449  0.2766 -0.6062
   26TAL   C12730236   0.345  -2.555   4.268  0.1317 -0.1098  0.0572
   26TAL   C12830237   0.384  -2.511   4.414  0.4375 -0.4080  0.4232
   26TAL   C12930238   0.475  -2.389   4.412  0.6915 -0.1981  0.4462
   26TAL   C13030239   0.621  -2.420   4.389  0.6029 -0.3076  0.1432
   27HTM   C13130240  -0.118  -2.740   3.995  0.4092 -0.1583  0.0410
   27HTM   C13230241  -0.172  -2.834   3.912  0.7195 -0.2868 -0.0168
   27HTM   C13330242  -0.252  -2.933   3.980  0.5755 -0.2599 -0.1463
   27HTM   C13430243  -0.259  -2.914   4.115  0.1557 -0.1107 -0.1868
   27HTM    S1430244  -0.164  -2.770   4.167 -0.0927  0.0079 -0.0643
   28TAL   C13530245  -0.317  -3.041   3.898  0.5337  0.1881 -1.3522
   28TAL   C13630246  -0.467  -3.058   3.910  0.3913  0.2789 -0.2762
   28TAL   C13730247  -0.563  -2.955   3.855 -0.0265 -0.1816  0.0419
   28TAL   C13830248  -0.707  -3.001   3.857  0.2851 -0.1701  0.0983
   28TAL   C13930249  -0.807  -2.905   3.789 -0.0211 -0.3019 -0.2975
   28TAL   C14030250  -0.942  -2.969   3.756  0.9207  0.3663  0.0271
   29HTM   C14130251  -0.323  -2.993   4.210  0.2585  0.2756  0.1799
   29HTM   C14230252  -0.278  -3.106   4.273  0.1273  0.1187 -0.0062
   29HTM   C14330253  -0.372  -3.160   4.367 -0.0181 -0.0420 -0.2420
   29HTM   C14430254  -0.488  -3.089   4.376  0.0036 -0.0071 -0.2356
   29HTM    S1530255  -0.488  -2.947   4.266  0.2096  0.2325  0.0712
   30TAL   C14530256  -0.334  -3.272   4.463  0.1081  0.1415  0.6362
   30TAL   C14630257  -0.384  -3.408   4.408  0.5533  0.1567  0.1978
   30TAL   C14730258  -0.345  -3.538   4.485 -0.3540 -1.4467  0.4501
   30TAL   C14830259  -0.402  -3.550   4.627 -0.1013 -0.3163 -0.7396
   30TAL   C14930260  -0.358  -3.684   4.681  0.0171 -0.2763 -0.6406
   30TAL   C15030261  -0.401  -3.694   4.833  0.5642  0.0493  0.3113
   31HTM   C15130262  -0.608  -3.105   4.455 -0.2097 -0.1387 -0.2114
   31HTM   C15230263  -0.660  -3.218   4.510 -0.5322 -0.3300 -0.9096
   31HTM   C15330264  -0.798  -3.206   4.550 -0.5693 -0.2639 -1.0571
   31HTM   C15430265  -0.851  -3.082   4.526 -0.2758 -0.0222 -0.4717
   31HTM    S1630266  -0.730  -2.972   4.451  0.0746  0.1417  0.3179
   32TAL   C15530267  -0.878  -3.308   4.638 -0.4818  0.0099 -0.4879
   32TAL   C15630268  -0.794  -3.431   4.676  0.3100 -0.2072 -0.3732
   32TAL   C15730269  -0.855  -3.548   4.750  0.1343 -0.7284 -0.1648
   32TAL   C15830270  -0.968  -3.604   4.658 -0.8047  0.4917  0.0855
   32TAL   C15930271  -1.037  -3.732   4.715 -0.0487  0.6873 -0.6438
   32TAL   C16030272  -1.150  -3.792   4.631 -0.4164  0.2545 -0.0881
   33HTM   C16130273  -0.990  -3.040   4.529  0.1237 -0.3034 -0.2844
   33HTM   C16230274  -1.103  -3.115   4.520  0.0708 -0.2303 -0.2294
   33HTM   C16330275  -1.224  -3.038   4.513  0.0858 -0.1564  0.2785
   33HTM   C16430276  -1.204  -2.903   4.516  0.1504 -0.1729  0.6106
   33HTM    S1730277  -1.028  -2.864   4.528  0.1974 -0.2839  0.3055
   34TAL   C16530278  -1.361  -3.101   4.511  0.2815 -0.0100 -0.9152
   34TAL   C16630279  -1.418  -3.134   4.374 -0.1179  0.7626  0.2706
   34TAL   C16730280  -1.562  -3.179   4.387  0.2965  0.3991 -1.0194
   34TAL   C16830281  -1.636  -3.221   4.263 -0.5644 -0.3335  0.9676
   34TAL   C16930282  -1.662  -3.103   4.167  0.2393 -0.0837  0.3974
   34TAL   C17030283  -1.799  -3.033   4.174  0.5947  0.6315  0.1222
   35HTM   C17130284  -1.297  -2.790   4.514  0.1387  0.1316  0.7396
   35HTM   C17230285  -1.260  -2.663   4.479  0.3130  0.1600  1.0262
   35HTM   C17330286  -1.369  -2.569   4.480  0.2704  0.1192  0.3691
   35HTM   C17430287  -1.489  -2.624   4.515  0.0639  0.0598 -0.4185
   35HTM    S1830288  -1.473  -2.800   4.550 -0.0941  0.0505 -0.3910
   36TAL   C17530289  -1.339  -2.415   4.460 -0.2741 -0.5863 -0.2892
   36TAL   C17630290  -1.205  -2.371   4.404 -0.3163  0.1102  0.4182
   36TAL   C17730291  -1.172  -2.220   4.410  0.2839  0.3119 -0.0534
   36TAL   C17830292  -1.025  -2.194   4.423 -0.0945 -0.5827 -0.3067
   36TAL   C17930293  -0.983  -2.046   4.400  0.4977 -0.4688 -0.3323
   36TAL   C18030294  -0.836  -2.007   4.410 -0.1151  0.0169 -0.1974
   37HTM   C18130295  -1.628  -2.576   4.527  0.0395  0.0378  0.0714
   37HTM   C18230296  -1.737  -2.656   4.509  0.1085  0.0203 -0.2739
   37HTM   C18330297  -1.860  -2.584   4.489  0.1173 -0.0002 -0.4039
   37HTM   C18430298  -1.845  -2.448   4.492  0.0547  0.0015 -0.1570
   37HTM    S1930299  -1.673  -2.401   4.520 -0.0198  0.0295  0.2611
   38TAL   C18530300  -1.990  -2.644   4.447  0.3670  0.6026  0.7928
   38TAL   C18630301  -1.997  -2.738   4.327 -0.1223  0.6580  0.3350
   38TAL   C18730302  -2.138  -2.797   4.297 -0.0592 -0.4462  0.0996
   38TAL   C18830303  -2.141  -2.898   4.184 -0.0838 -0.3240  0.0110
   38TAL   C18930304  -2.117  -2.835   4.049 -0.5058 -0.1876  0.2379
   38TAL   C19030305  -2.216  -2.732   3.994 -0.0416 -0.1519  0.2507
   39HTM   C19130306  -1.932  -2.335   4.479  0.2193  0.6766 -0.1841
   39HTM   C19230307  -1.896  -2.210   4.439 -0.0327  0.7064 -0.3178
   39HTM   C19330308  -2.000  -2.112   4.454 -0.1283  0.5760 -0.1316
   39HTM   C19430309  -2.116  -2.162   4.506  0.0505  0.4468  0.1440
   39HTM    S2030310  -2.102  -2.339   4.540  0.3562  0.4798  0.1904
   40TAL   C19530311  -1.970  -1.974   4.403  0.5962 -0.1452  0.0441
   40TAL   C19630312  -1.850  -1.896   4.454  0.3558  0.0356  0.0862
   40TAL   C19730313  -1.896  -1.760   4.505  0.0670  0.7648  0.5403
   40TAL   C19830314  -1.766  -1.681   4.524 -0.4889 -0.8200  0.2118
   40TAL   C19930315  -1.781  -1.541   4.594 -0.3051 -0.0759 -0.1121
   40TAL   C20030316  -1.656  -1.460   4.600 -0.1220 -0.7318  0.1211
   41HTM   C20130317  -2.241  -2.099   4.539  0.0005  0.1097 -0.4135
   41HTM   C20230318  -2.333  -2.160   4.618  0.5362 -0.3135 -0.1094
   41HTM   C20330319  -2.439  -2.073   4.661  0.4063 -0.7379  0.4327
   41HTM   C20430320  -2.428  -1.945   4.615 -0.2286 -0.6379  0.5423
   41HTM    S2130321  -2.281  -1.925   4.513 -0.7152  0.0045 -0.0357
   42TAL   C20530322  -2.556  -2.131   4.743 -0.4440  0.3068  0.2958
   42TAL   C20630323  -2.608  -2.260   4.689 -0.4360 -0.2790 -0.0554
   42TAL   C20730324  -2.667  -2.244   4.548  0.1060 -0.3179 -0.8487
   42TAL   C20830325  -2.704  -2.367   4.460  0.4460  0.1876 -0.0510
   42TAL   C20930326  -2.788  -2.478   4.529  0.1863  0.0075 -0.4224
   42TAL   C21030327  -2.811  -2.600   4.443  0.1351  0.0884 -0.1674
   43HTM   C21130328  -2.523  -1.829   4.634  0.1164  0.1343 -0.0022
   43HTM   C21230329  -2.658  -1.828   4.652  0.0963  0.0789 -0.1497
   43HTM   C21330330  -2.714  -1.697   4.670  0.0260  0.0546 -0.1891
   43HTM   C21430331  -2.621  -1.597   4.666 -0.0077  0.0913 -0.0713
   43HTM    S2230332  -2.455  -1.662   4.639  0.0474  0.1599  0.0993
   44TAL   C21530333  -2.862  -1.674   4.688  0.2050 -0.5148  0.1371
   44TAL   C21630334  -2.945  -1.748   4.785  0.2061  0.5562 -0.4857
   44TAL   C21730335  -2.967  -1.894   4.744  0.5352  0.1180 -0.8230
   44TAL   C21830336  -3.061  -1.968   4.844 -0.6405  0.2458  0.0605
   44TAL   C21930337  -3.077  -2.121   4.823 -0.3830 -0.3382  0.0176
   44TAL   C22030338  -2.957  -2.214   4.850 -0.2048 -0.2276 -0.2366
   45HTM   C22130339  -2.635  -1.451   4.695 -0.2629 -0.3148  0.1992
   45HTM   C22230340  -2.540  -1.374   4.757 -0.1090 -0.5679  0.2789
   45HTM   C22330341  -2.578  -1.236   4.772  0.2227 -0.4778  0.2985
   45HTM   C22430342  -2.702  -1.208   4.723  0.3213 -0.1557  0.2337
   45HTM    S2330343  -2.781  -1.354   4.653  0.0006  0.0598  0.1425
   46TAL   C22530344  -2.482  -1.149   4.844 -0.0987 -0.0334  0.5584
   46TAL   C22630345  -2.537  -1.125   4.984 -0.1952 -0.5943 -0.3205
   46TAL   C22730346  -2.460  -1.017   5.059 -0.1950 -0.2429  0.4218
   46TAL   C22830347  -2.515  -0.880   5.035 -0.1253  0.3580  0.1942
   46TAL   C22930348  -2.413  -0.777   5.080  0.4363  0.7947 -0.1964
   46TAL   C23030349  -2.451  -0.644   5.019 -0.1868  0.2072  0.0281
   47HTM   C23130350  -2.789  -1.091   4.726 -0.3125  0.1264 -0.0409
   47HTM   C23230351  -2.923  -1.093   4.748 -0.3278  0.0675 -0.1392
   47HTM   C23330352  -2.985  -0.963   4.742 -0.3867  0.0358 -0.2253
   47HTM   C23430353  -2.897  -0.862   4.715 -0.4164  0.0700 -0.1922
   47HTM    S2430354  -2.729  -0.924   4.695 -0.3717  0.1466 -0.0492
   48TAL   C23530355  -3.130  -0.928   4.754 -0.9702  0.4486 -0.2600
   48TAL   C23630356  -3.229  -1.037   4.780  0.5440  0.6859  0.4525
   48TAL   C23730357  -3.238  -1.089   4.919  0.5149 -0.4709  0.1670
   48TAL   C23830358  -3.279  -1.232   4.948  0.4060  0.0981  0.2846
   48TAL   C23930359  -3.220  -1.351   4.878  0.6384 -0.1745  0.6326
   48TAL   C24030360  -3.076  -1.388   4.905  1.1507 -0.0477  0.1518
    1HTM     C130361   3.764   1.567   7.494 -0.0432 -0.0904  0.3955
    1HTM     C230362   3.822   1.491   7.591  0.1596 -0.1230  0.2494
    1HTM     C330363   3.954   1.443   7.556  0.1839  0.0832  0.0546
    1HTM     C430364   3.996   1.483   7.432 -0.0004  0.2729  0.0523
    1HTM     S130365   3.872   1.585   7.350 -0.2206  0.2054  0.2984
    2TAL     C530366   4.048   1.344   7.628 -0.1530 -0.0019  1.0560
    2TAL     C630367   4.009   1.281   7.758  0.0735  0.2909  0.7915
    2TAL     C730368   3.993   1.373   7.877  0.2094 -0.6666 -0.5563
    2TAL     C830369   3.904   1.319   7.992 -0.2208  0.1337  0.2300
    2TAL     C930370   3.911   1.394   8.123 -0.2946  0.1622 -0.0056
    2TAL    C1030371   4.043   1.414   8.203  0.0216 -0.2950 -0.0611
    3HTM    C1130372   4.126   1.483   7.366  0.2472  0.0862 -0.0451
    3HTM    C1230373   4.197   1.590   7.320  0.6080 -0.0985  0.0749
    3HTM    C1330374   4.320   1.554   7.253  0.6320 -0.4201  0.2887
    3HTM    C1430375   4.342   1.420   7.248  0.2900 -0.4806  0.3310
    3HTM     S230376   4.210   1.327   7.328 -0.0928 -0.1334  0.1031
    4TAL    C1530377   4.404   1.654   7.178 -0.1520 -0.7816 -0.6035
    4TAL    C1630378   4.349   1.709   7.050 -0.1047  0.1996  0.2352
    4TAL    C1730379   4.215   1.774   7.038  0.5415  0.1637 -0.6867
    4TAL    C1830380   4.157   1.875   7.137  0.1608  0.4653 -0.2865
    4TAL    C1930381   4.251   1.969   7.218  0.3769 -0.4966  0.7357
    4TAL    C2030382   4.163   2.031   7.323 -0.1643 -0.1227  0.2839
    5HTM    C2130383   4.452   1.333   7.204  0.1260  0.1074  0.0045
    5HTM    C2230384   4.436   1.219   7.131 -0.0839  0.1478 -0.0131
    5HTM    C2330385   4.558   1.147   7.109 -0.1874  0.0257 -0.1867
    5HTM    C2430386   4.668   1.206   7.164 -0.0569 -0.1078 -0.3017
    5HTM     S330387   4.624   1.359   7.250  0.2096 -0.0895 -0.1989
    6TAL    C2530388   4.553   1.022   7.016  0.1079  0.5482 -0.2086
    6TAL    C2630389   4.430   0.940   6.981 -0.0334 -0.8114 -0.9803
    6TAL    C2730390   4.352   0.876   7.103 -0.6293  0.3471  0.5278
    6TAL    C2830391   4.234   0.796   7.064 -0.2269 -0.1634 -0.2539
    6TAL    C2930392   4.196   0.703   7.179  0.0992 -0.6130 -0.1888
    6TAL    C3030393   4.047   0.671   7.176 -0.2689  0.3920 -0.4149
    7HTM    C3130394   4.803   1.151   7.181 -0.0477 -0.1611  0.3165
    7HTM    C3230395   4.868   1.063   7.100 -0.1824 -0.2507  0.3061
    7HTM    C3330396   4.998   1.024   7.149 -0.0782 -0.1553  0.1049
    7HTM    C3430397   5.032   1.084   7.267  0.1364  0.0071 -0.0380
    7HTM     S430398   4.902   1.194   7.326  0.2233  0.0524  0.0710
    8TAL    C3530399   5.087   0.930   7.074 -0.1320 -0.8070 -0.3158
    8TAL    C3630400   5.077   0.782   7.118 -0.1844 -0.1217  0.1541
    8TAL    C3730401   5.223   0.730   7.120 -0.2749  0.2185 -0.1876
    8TAL    C3830402   5.234   0.581   7.135  0.2489  0.1344 -0.5697
    8TAL    C3930403   5.350   0.512   7.073 -0.1116  0.3738  0.1834
    8TAL    C4030404   5.479   0.530   7.146 -0.2087 -0.5399 -0.3501
    9HTM    C4130405   5.158   1.081   7.329 -0.1082  0.0984  0.1811
    9HTM    C4230406   5.212   0.978   7.401 -0.2484  0.0992  0.2866
    9HTM    C4330407   5.345   1.004   7.450 -0.1802 -0.0652  0.1886
    9HTM    C4430408   5.393   1.127   7.415  0.0117 -0.1916  0.0091
    9HTM     S530409   5.273   1.220   7.317  0.1223 -0.1120 -0.0514
   10TAL    C4530410   5.436   0.900   7.508 -0.3788  0.5322 -0.4976
   10TAL    C4630411   5.490   0.796   7.410 -0.1147 -0.5891  0.1387
   10TAL    C4730412   5.573   0.686   7.461  0.0247 -0.0905  0.4897
   10TAL    C4830413   5.711   0.713   7.519  0.0838 -0.1186 -0.4795
   10TAL    C4930414   5.764   0.591   7.591 -0.4066  0.7730 -0.4970
   10TAL    C5030415   5.906   0.597   7.637 -0.6886  0.3252 -0.2793
   11HTM    C5130416   5.527   1.189   7.446 -0.0607  0.1812  0.3044
   11HTM    C5230417   5.549   1.308   7.507  0.0455 -0.0226  0.6657
   11HTM    C5330418   5.688   1.342   7.521  0.0734 -0.1596  0.7141
   11HTM    C5430419   5.773   1.247   7.470 -0.0112 -0.0603  0.3898
   11HTM     S630420   5.682   1.108   7.400 -0.1340  0.2162 -0.0050
   12TAL    C5530421   5.743   1.472   7.579  0.9021 -0.1804  0.7142
   12TAL    C5630422   5.650   1.569   7.642 -0.4446 -0.2363 -0.2393
   12TAL    C5730423   5.729   1.687   7.704 -0.0330 -0.2028 -0.4959
   12TAL    C5830424   5.643   1.802   7.734  0.4877 -0.5792  0.5465
   12TAL    C5930425   5.712   1.920   7.808  1.3225  0.0406  0.4559
   12TAL    C6030426   5.616   2.036   7.848 -0.3730 -0.1277 -0.0102
   13HTM    C6130427   5.918   1.239   7.459  0.2056 -0.2152  0.1607
   13HTM    C6230428   6.015   1.335   7.458  0.1564 -0.1689 -0.3264
   13HTM    C6330429   6.148   1.283   7.443  0.1404 -0.1351 -0.5927
   13HTM    C6430430   6.153   1.148   7.433  0.1775 -0.1558 -0.3086
   13HTM     S730431   5.989   1.074   7.441  0.2359 -0.2199  0.3220
   14TAL    C6530432   6.272   1.376   7.448  0.3249  0.2201  0.4294
   14TAL    C6630433   6.271   1.528   7.472 -0.4820 -0.3513  0.3031
   14TAL    C6730434   6.409   1.602   7.466  0.2386 -0.5668 -0.6462
   14TAL    C6830435   6.403   1.758   7.471  0.1084 -0.5229 -0.4487
   14TAL    C6930436   6.523   1.847   7.439  0.4926  0.3446 -0.4683
   14TAL    C7030437   6.601   1.809   7.319  0.8179  1.0227  0.5042
   15HTM    C7130438   6.270   1.058   7.437 -0.1977  0.0467 -0.2558
   15HTM    C7230439   6.403   1.087   7.442 -0.2518  0.2985 -0.2582
   15HTM    C7330440   6.487   0.971   7.457 -0.0305  0.4543 -0.2842
   15HTM    C7430441   6.418   0.854   7.465  0.1919  0.3212 -0.3020
   15HTM     S830442   6.240   0.881   7.453  0.1388 -0.0137 -0.2866
   16TAL    C7530443   6.641   0.989   7.476 -0.1930  0.4534  0.0275
   16TAL    C7630444   6.712   1.105   7.406 -0.3150 -0.0191 -0.0180
   16TAL    C7730445   6.852   1.121   7.448  0.5001  0.2386 -0.1481
   16TAL    C7830446   6.901   1.250   7.387  0.3302 -0.4085 -0.0363
   16TAL    C7930447   7.044   1.281   7.427 -0.4709 -0.1346  0.1127
   16TAL    C8030448   7.107   1.385   7.339 -1.0606 -0.4818  0.5318
   17HTM    C8130449   6.457   0.718   7.494  0.2227  0.1039  0.8341
   17HTM    C8230450   6.371   0.619   7.530  0.3743  0.2874  1.7185
   17HTM    C8330451   6.436   0.494   7.560  0.4573  0.2787  1.5044
   17HTM    C8430452   6.572   0.499   7.547  0.3692  0.0886  0.4564
   17HTM     S930453   6.628   0.662   7.495  0.1728 -0.0956 -0.3475
   18TAL    C8530454   6.362   0.372   7.609  0.5731  0.7572 -0.1814
   18TAL    C8630455   6.257   0.388   7.717 -0.3057 -0.1312 -0.1882
   18TAL    C8730456   6.316   0.457   7.852  0.7786 -0.8258 -0.6394
   18TAL    C8830457   6.220   0.496   7.961  0.6204  0.4269  0.0303
   18TAL    C8930458   6.308   0.510   8.079 -0.5374  0.1958 -0.1259
   18TAL    C9030459   6.249   0.587   8.197 -0.7964  0.3455 -0.3518
   19HTM    C9130460   6.675   0.403   7.568 -0.1085  0.3192 -0.1600
   19HTM    C9230461   6.783   0.421   7.650 -0.3371  0.5608  0.0899
   19HTM    C9330462   6.862   0.302   7.669 -0.2582  0.6738  0.4768
   19HTM    C9430463   6.814   0.193   7.602  0.0308  0.5184  0.5225
   19HTM    S1030464   6.665   0.233   7.508  0.2269  0.2149  0.0766
   20TAL    C9530465   6.977   0.308   7.763 -0.2991  0.7207 -0.5156
   20TAL    C9630466   7.110   0.352   7.704  1.0821  0.1816 -0.3587
   20TAL    C9730467   7.222   0.366   7.813  0.0460  0.6437 -0.1806
   20TAL    C9830468   7.294   0.234   7.839 -0.3101 -0.0931  0.5469
   20TAL    C9930469   7.372   0.261   7.973 -0.4419 -0.0118  0.2156
   20TAL   C10030470   7.488   0.156   7.987  0.0687 -0.0237  0.0841
   21HTM   C10130471   6.866   0.056   7.586  0.5028  0.4185 -0.5293
   21HTM   C10230472   6.805  -0.049   7.525  0.3777  0.6199 -0.7524
   21HTM   C10330473   6.872  -0.175   7.546 -0.1271  0.3929 -0.4764
   21HTM   C10430474   6.984  -0.166   7.622 -0.3866  0.0175 -0.0426
   21HTM    S1130475   7.015   0.004   7.675 -0.0103 -0.0786  0.0513
   22TAL   C10530476   6.812  -0.303   7.479 -0.1462  0.0272 -1.3018
   22TAL   C10630477   6.704  -0.365   7.565  0.2968 -0.1873 -0.4909
   22TAL   C10730478   6.670  -0.500   7.508 -0.3219 -0.1334  0.0571
   22TAL   C10830479   6.546  -0.557   7.579  0.1652  0.1500  0.1749
   22TAL   C10930480   6.547  -0.709   7.573 -0.6177 -0.3587  0.2418
   22TAL   C11030481   6.451  -0.775   7.662  0.5340 -0.3172 -0.1080
   23HTM   C11130482   7.079  -0.272   7.668 -0.2153  0.3221  0.5818
   23HTM   C11230483   7.078  -0.407   7.652 -0.5901  0.3819  0.0434
   23HTM   C11330484   7.195  -0.472   7.707 -0.5529 -0.1149 -0.6154
   23HTM   C11430485   7.284  -0.386   7.764 -0.1494 -0.5533 -0.5793
   23HTM    S1230486   7.227  -0.215   7.753  0.2176 -0.3717  0.2964
   24TAL   C11530487   7.221  -0.615   7.709  0.1610  0.4183  0.2172
   24TAL   C11630488   7.104  -0.713   7.674 -0.1973 -0.5206  0.2410
   24TAL   C11730489   7.064  -0.711   7.526 -0.1810 -0.2447  0.8556
   24TAL   C11830490   6.939  -0.794   7.496 -0.0451 -0.3190 -0.0374
   24TAL   C11930491   6.908  -0.802   7.347 -0.3746  0.3868 -0.4909
   24TAL   C12030492   6.768  -0.851   7.307 -0.0236  0.3002 -0.1513
   25HTM   C12130493   7.417  -0.393   7.816 -0.3539  0.2731 -0.3746
   25HTM   C12230494   7.472  -0.478   7.907 -0.6471  0.2260 -0.2401
   25HTM   C12330495   7.601  -0.436   7.956 -0.7102  0.0963  0.0422
   25HTM   C12430496   7.644  -0.318   7.902 -0.4657  0.0442  0.1235
   25HTM    S1330497   7.525  -0.252   7.784 -0.1335  0.1554 -0.1525
   26TAL   C12530498   7.683  -0.521   8.053  0.2721  0.3109  0.5881
   26TAL   C12630499   7.609  -0.571   8.173  0.2963 -0.8914  0.2634
   26TAL   C12730500   7.530  -0.465   8.250 -0.1502 -0.3611 -0.2103
   26TAL   C12830501   7.610  -0.350   8.318  0.0816 -0.0718  1.2766
   26TAL   C12930502   7.517  -0.233   8.338  0.0709 -0.6930  0.2704
   26TAL   C13030503   7.456  -0.173   8.210  0.3705  0.3431  0.5394
   27HTM   C13130504   7.766  -0.243   7.912  0.2934 -0.2313  0.1696
   27HTM   C13230505   7.766  -0.119   7.967  0.1493 -0.2823  0.2842
   27HTM   C13330506   7.882  -0.041   7.934  0.0184 -0.0854  0.2866
   27HTM   C13430507   7.971  -0.106   7.853  0.0629  0.1148  0.1729
   27HTM    S1430508   7.913  -0.272   7.812  0.2752  0.0711  0.0541
   28TAL   C13530509   7.888   0.098   7.995  0.7834 -0.1161  0.6133
   28TAL   C13630510   7.966   0.085   8.125 -1.0153 -0.0670  0.2025
   28TAL   C13730511   8.006   0.221   8.191 -0.3846  0.3964 -0.1037
   28TAL   C13830512   8.084   0.315   8.103 -0.2933 -0.1034 -0.2229
   28TAL   C13930513   8.124   0.438   8.176 -0.7106 -1.0290 -0.1538
   28TAL   C14030514   8.225   0.526   8.104  0.9632 -0.3966 -0.0527
   29HTM   C14130515   8.085  -0.054   7.776  0.0826  0.0506 -0.8367
   29HTM   C14230516   8.134  -0.108   7.661 -0.1388  0.7830 -1.2765
   29HTM   C14330517   8.258  -0.048   7.618 -0.1564  0.9704 -1.0705
   29HTM   C14430518   8.303   0.050   7.700  0.0511  0.3819 -0.4741
   29HTM    S1530519   8.192   0.076   7.840  0.2872 -0.4624 -0.1233
   30TAL   C14530520   8.318  -0.093   7.485 -0.2783 -0.3063 -0.6411
   30TAL   C14630521   8.231  -0.118   7.361  0.4597 -0.2915 -0.0327
   30TAL   C14730522   8.155  -0.006   7.301 -0.7387 -0.2829 -0.3912
   30TAL   C14830523   8.237   0.119   7.272  0.4722 -0.2958  0.1350
   30TAL   C14930524   8.170   0.254   7.251 -0.0227  0.3916 -0.6823
   30TAL   C15030525   8.268   0.360   7.200 -0.3021  0.5765 -0.7340
   31HTM   C15130526   8.419   0.134   7.683 -0.0571  0.3984  0.1783
   31HTM   C15230527   8.438   0.258   7.736  0.2766  0.5247 -0.2365
   31HTM   C15330528   8.568   0.313   7.708  0.4373  0.0713 -0.3951
   31HTM   C15430529   8.649   0.231   7.635  0.2255 -0.4007 -0.1007
   31HTM    S1630530   8.565   0.076   7.595 -0.1957 -0.3084  0.4032
   32TAL   C15530531   8.622   0.438   7.775  0.2642  0.1755  0.1542
   32TAL   C15630532   8.538   0.500   7.891  0.4799  0.5842 -0.2653
   32TAL   C15730533   8.522   0.647   7.893  0.7191 -0.1214  0.2163
   32TAL   C15830534   8.424   0.714   7.796  0.3428 -0.7221  0.0818
   32TAL   C15930535   8.441   0.866   7.776 -0.4235  0.1211  0.7409
   32TAL   C16030536   8.580   0.927   7.753  0.5178  0.1604 -0.8766
   33HTM   C16130537   8.789   0.233   7.595 -0.5201 -0.4438  0.3947
   33HTM   C16230538   8.880   0.331   7.568 -0.7415 -0.2541  0.3355
   33HTM   C16330539   9.015   0.283   7.554 -0.7095 -0.0301 -0.1640
   33HTM   C16430540   9.027   0.148   7.570 -0.4654 -0.0491 -0.4857
   33HTM    S1730541   8.868   0.071   7.605 -0.2532 -0.3536 -0.1799
   34TAL   C16530542   9.121   0.379   7.516  0.1366 -0.0813  0.2145
   34TAL   C16630543   9.185   0.482   7.613 -0.7512 -0.1048  0.6347
   34TAL   C16730544   9.098   0.588   7.672 -0.1038  0.7385 -0.3918
   34TAL   C16830545   9.055   0.692   7.569  0.3449 -0.0579  0.3717
   34TAL   C16930546   9.019   0.831   7.627  0.0207  0.2754 -0.4341
   34TAL   C17030547   8.951   0.926   7.531  0.7258  0.6757 -0.3550
   35HTM   C17130548   9.140   0.059   7.563 -0.0220 -0.1596  0.0893
   35HTM   C17230549   9.139  -0.077   7.547  0.0656 -0.1726  0.1888
   35HTM   C17330550   9.269  -0.137   7.561  0.0993 -0.0820  0.2668
   35HTM   C17430551   9.369  -0.048   7.589  0.0373 -0.0001  0.2264
   35HTM    S1830552   9.305   0.120   7.599 -0.0692 -0.0307  0.0857
   36TAL   C17530553   9.283  -0.290   7.563 -0.5028 -0.0709  0.3096
   36TAL   C17630554   9.210  -0.367   7.455 -0.6699  0.5113 -0.3880
   36TAL   C17730555   9.293  -0.391   7.327 -0.7416  0.0876 -0.2669
   36TAL   C17830556   9.443  -0.445   7.333 -0.0301  0.0244 -0.4559
   36TAL   C17930557   9.545  -0.385   7.239 -0.6258 -0.1080  0.3749
   36TAL   C18030558   9.569  -0.234   7.247 -0.5248  0.1975 -0.2049
   37HTM   C18130559   9.517  -0.069   7.612 -0.2159  0.0269 -0.0517
   37HTM   C18230560   9.601   0.035   7.640 -0.1856 -0.0181  0.0236
   37HTM   C18330561   9.739  -0.004   7.652 -0.2191 -0.0944  0.1647
   37HTM   C18430562   9.761  -0.137   7.633 -0.2749 -0.1082  0.1972
   37HTM    S1930563   9.607  -0.225   7.598 -0.2897 -0.0247  0.0506
   38TAL   C18530564   9.840   0.111   7.660 -0.0032 -0.0616 -0.2906
   38TAL   C18630565   9.862   0.184   7.800  0.3079 -0.5506 -0.4001
   38TAL   C18730566   9.927   0.314   7.798 -0.4595  0.5633  0.2342
   38TAL   C18830567   9.952   0.381   7.926 -0.5062 -0.1174 -0.0303
   38TAL   C18930568  10.017   0.519   7.916  0.4450  0.5902 -0.4372
   38TAL   C19030569   9.999   0.597   8.042  0.3834  0.5719 -0.1832
   39HTM   C19130570   9.881  -0.210   7.619 -0.1084  0.3565 -0.1928
   39HTM   C19230571  10.003  -0.191   7.677  0.0153  0.8984 -0.6261
   39HTM   C19330572  10.102  -0.287   7.635  0.0690  0.8335 -0.3560
   39HTM   C19430573  10.056  -0.378   7.545 -0.0138  0.2433  0.2836
   39HTM    S2030574   9.882  -0.351   7.507 -0.1672 -0.2821  0.5963
   40TAL   C19530575  10.249  -0.292   7.677  0.2168 -0.8195  0.0466
   40TAL   C19630576  10.303  -0.167   7.749 -0.4254 -0.8626  0.0371
   40TAL   C19730577  10.321  -0.039   7.664  1.0074 -0.3987 -0.2722
   40TAL   C19830578  10.346   0.086   7.749 -0.3786 -0.2251 -0.2165
   40TAL   C19930579  10.321   0.206   7.660 -0.3764 -0.6811  0.1947
   40TAL   C20030580  10.338   0.326   7.746  0.3131  0.2278 -0.0919
   41HTM   C20130581  10.109  -0.496   7.459  0.1746  0.7314 -0.3557
   41HTM   C20230582  10.040  -0.601   7.407 -0.1945  1.1935 -0.8032
   41HTM   C20330583  10.123  -0.706   7.356 -0.5651  0.9947 -1.0047
   41HTM   C20430584  10.257  -0.682   7.370 -0.4784  0.3812 -0.7101
   41HTM    S2130585  10.287  -0.522   7.448  0.0822  0.0042 -0.1516
   42TAL   C20530586  10.055  -0.832   7.294 -0.7651  0.1953  0.0776
   42TAL   C20630587  10.022  -0.958   7.389 -0.3197  0.2229 -0.2386
   42TAL   C20730588   9.986  -1.080   7.311  0.3667  0.3124  0.4552
   42TAL   C20830589   9.960  -1.198   7.408  0.6239 -0.3755  0.6083
   42TAL   C20930590  10.084  -1.271   7.452 -0.0257  0.4551 -0.0194
   42TAL   C21030591  10.062  -1.361   7.573 -0.4165 -0.4155 -0.2728
   43HTM   C21130592  10.371  -0.764   7.339 -0.2084 -0.0065 -0.1923
   43HTM   C21230593  10.500  -0.731   7.370 -0.2279 -0.0396 -0.0749
   43HTM   C21330594  10.593  -0.839   7.350 -0.2485 -0.0858  0.0830
   43HTM   C21430595  10.535  -0.954   7.305 -0.2448 -0.0889  0.0853
   43HTM    S2230596  10.357  -0.935   7.283 -0.2146 -0.0323 -0.1126
   44TAL   C21530597  10.741  -0.816   7.378  0.3421  0.2593  0.3086
   44TAL   C21630598  10.781  -0.762   7.513 -0.4039 -0.1019 -0.8092
   44TAL   C21730599  10.729  -0.829   7.645 -0.3515 -0.5856 -0.1938
   44TAL   C21830600  10.595  -0.785   7.717  0.0640 -0.2995 -0.4512
   44TAL   C21930601  10.580  -0.636   7.745  0.4931 -0.2125 -0.1155
   44TAL   C22030602  10.456  -0.578   7.820 -0.4878 -0.5137  0.4053
   45HTM   C22130603  10.592  -1.084   7.295 -0.4691 -0.4038 -0.7181
   45HTM   C22230604  10.705  -1.136   7.238 -0.6363 -0.6719 -0.8054
   45HTM   C22330605  10.732  -1.272   7.277 -0.5221 -0.4902 -0.2482
   45HTM   C22430606  10.641  -1.324   7.364 -0.2678 -0.0841  0.2640
   45HTM    S2330607  10.512  -1.204   7.404 -0.1520  0.1019  0.0813
   46TAL   C22530608  10.864  -1.335   7.220  0.7049 -0.2503  0.4774
   46TAL   C22630609  10.902  -1.484   7.237 -0.2265  0.3429  0.0276
   46TAL   C22730610  11.026  -1.550   7.176 -0.4695  0.8322 -0.3870
   46TAL   C22830611  11.042  -1.548   7.022 -0.9119 -0.1144  0.2219
   46TAL   C22930612  10.935  -1.619   6.939  0.2137 -0.0344 -0.6956
   46TAL   C23030613  10.943  -1.580   6.792  0.6236 -0.4112 -0.1451
   47HTM   C23130614  10.621  -1.456   7.425 -0.1326 -0.2484 -0.2715
   47HTM   C23230615  10.716  -1.532   7.485 -0.1115 -0.1628 -0.1974
   47HTM   C23330616  10.666  -1.657   7.538 -0.1061 -0.0615  0.0503
   47HTM   C23430617  10.533  -1.675   7.517 -0.1232 -0.0698  0.1649
   47HTM    S2430618  10.459  -1.536   7.429 -0.1475 -0.2076 -0.0323
   48TAL   C23530619  10.760  -1.743   7.615 -0.5189 -0.0152  0.1782
   48TAL   C23630620  10.719  -1.878   7.672  0.1183  0.3347 -0.3630
   48TAL   C23730621  10.829  -1.979   7.707  0.0766  0.0094 -0.4348
   48TAL   C23830622  10.785  -2.113   7.771 -0.1776  0.8241 -0.2026
   48TAL   C23930623  10.733  -2.098   7.910 -0.2024  0.0902  0.1536
   48TAL   C24030624  10.685  -2.229   7.978 -0.6887 -0.8680 -0.4484
    1HTM     C130625   4.610   3.187   3.711  0.1380 -0.3788 -0.1737
    1HTM     C230626   4.736   3.233   3.734  0.1173 -0.2838 -0.2486
    1HTM     C330627   4.811   3.152   3.827  0.1464 -0.0863 -0.0983
    1HTM     C430628   4.742   3.044   3.874  0.1894 -0.0307  0.0911
    1HTM     S130629   4.576   3.037   3.805  0.1963 -0.2250  0.0944
    2TAL     C530630   4.956   3.185   3.850 -0.7122 -0.2245  0.4470
    2TAL     C630631   5.013   3.318   3.807 -0.0831 -0.0112 -0.1633
    2TAL     C730632   5.156   3.340   3.861  0.6972  0.1580  0.1227
    2TAL     C830633   5.213   3.478   3.817  0.8804  0.1729  0.2983
    2TAL     C930634   5.308   3.551   3.913  0.5197 -0.0623  0.4658
    2TAL    C1030635   5.349   3.692   3.876 -0.0594 -0.3749 -0.0971
    3HTM    C1130636   4.778   2.924   3.957  0.1847 -0.3371  0.0710
    3HTM    C1230637   4.692   2.847   4.031  0.0024 -0.5202 -0.3259
    3HTM    C1330638   4.754   2.731   4.090 -0.1769 -0.7468 -0.5805
    3HTM    C1430639   4.887   2.719   4.061 -0.1314 -0.7363 -0.3778
    3HTM     S230640   4.944   2.854   3.956  0.1435 -0.4373  0.1549
    4TAL    C1530641   4.670   2.641   4.175  0.2399 -0.3905 -0.3110
    4TAL    C1630642   4.559   2.563   4.104  0.1444 -0.9250  0.0766
    4TAL    C1730643   4.467   2.509   4.216 -0.1291  0.1656  0.1601
    4TAL    C1830644   4.324   2.465   4.196  0.2389  0.3259  0.1964
    4TAL    C1930645   4.293   2.374   4.077  0.8312 -0.1342  0.5218
    4TAL    C2030646   4.332   2.226   4.093 -0.0841 -0.2607 -0.1475
    5HTM    C2130647   4.990   2.619   4.091  0.1433  1.0540 -0.0538
    5HTM    C2230648   4.973   2.485   4.111 -0.6547  1.1425 -0.1185
    5HTM    C2330649   5.093   2.416   4.148 -1.0872  0.4236 -0.0343
    5HTM    C2430650   5.203   2.497   4.157 -0.6190 -0.2133  0.0941
    5HTM     S330651   5.161   2.668   4.119  0.4125  0.0478  0.1191
    6TAL    C2530652   5.084   2.270   4.178  1.0093 -0.1244 -0.0173
    6TAL    C2630653   5.071   2.187   4.055 -0.0336  0.2974 -0.2280
    6TAL    C2730654   5.097   2.037   4.073 -0.1022 -0.2126 -0.2788
    6TAL    C2830655   5.231   1.994   4.125  0.4423 -0.4134 -0.1310
    6TAL    C2930656   5.345   2.008   4.031 -1.2846 -0.3036  0.9674
    6TAL    C3030657   5.472   1.965   4.103  0.3219 -0.7646 -0.3829
    7HTM    C3130658   5.339   2.468   4.200 -0.2836 -0.1368  0.8478
    7HTM    C3230659   5.438   2.562   4.207 -0.4392 -0.0098  1.4393
    7HTM    C3330660   5.567   2.508   4.242 -0.3364 -0.0318  1.0383
    7HTM    C3430661   5.566   2.373   4.263 -0.1025 -0.1754  0.1413
    7HTM     S430662   5.402   2.303   4.238  0.0070 -0.2949 -0.2694
    8TAL    C3530663   5.684   2.608   4.254 -0.2782 -0.7545  0.3522
    8TAL    C3630664   5.690   2.726   4.363  0.0537  0.2994  0.2708
    8TAL    C3730665   5.625   2.695   4.497  0.4414  0.0461  0.1636
    8TAL    C3830666   5.625   2.808   4.601 -0.0212  0.0307  0.2895
    8TAL    C3930667   5.529   2.918   4.561 -0.1630  0.4167 -0.9530
    8TAL    C4030668   5.532   3.028   4.660 -0.3475  0.2161  0.2665
    9HTM    C4130669   5.667   2.277   4.306 -0.0211  0.0968 -0.3238
    9HTM    C4230670   5.647   2.152   4.357 -0.1216  0.1018 -0.3505
    9HTM    C4330671   5.769   2.081   4.386 -0.1793  0.1048 -0.1020
    9HTM    C4430672   5.882   2.152   4.358 -0.1223  0.1019  0.1142
    9HTM     S530673   5.842   2.315   4.291  0.0094  0.0953  0.0196
   10TAL    C4530674   5.769   1.947   4.456  0.0248  0.1867 -0.8371
   10TAL    C4630675   5.719   1.836   4.372 -0.1232 -1.0518  0.3926
   10TAL    C4730676   5.734   1.699   4.431 -0.3597 -0.1994  0.4826
   10TAL    C4830677   5.694   1.602   4.318 -0.1553 -0.1286 -0.0912
   10TAL    C4930678   5.733   1.457   4.347  0.1159  0.0334 -0.3575
   10TAL    C5030679   5.883   1.432   4.308  0.2669  0.1244  0.1044
   11HTM    C5130680   6.022   2.118   4.375  0.1177  0.2822  0.0155
   11HTM    C5230681   6.068   2.076   4.497 -0.0703  0.7073  0.2360
   11HTM    C5330682   6.209   2.099   4.516 -0.0739  0.6567  0.3214
   11HTM    C5430683   6.270   2.158   4.410  0.1110  0.1928  0.1665
   11HTM     S630684   6.154   2.190   4.276  0.3056 -0.2190 -0.1018
   12TAL    C5530685   6.285   2.046   4.632 -0.1569  0.1921  0.1407
   12TAL    C5630686   6.255   2.114   4.769 -0.5026 -0.0531 -0.5339
   12TAL    C5730687   6.336   2.076   4.890 -0.3947 -0.6737  0.0863
   12TAL    C5830688   6.287   1.945   4.958 -0.4819  0.4858 -0.3248
   12TAL    C5930689   6.340   1.909   5.099 -0.1520 -0.0484  0.2398
   12TAL    C6030690   6.486   1.874   5.108 -0.1351  0.6166  0.2579
   13HTM    C6130691   6.402   2.204   4.401  0.0050  0.2421  0.1821
   13HTM    C6230692   6.432   2.336   4.388  0.1225  0.2275  0.2995
   13HTM    C6330693   6.568   2.369   4.422  0.2091  0.0433  0.1321
   13HTM    C6430694   6.642   2.261   4.462  0.1575 -0.0826 -0.1133
   13HTM     S730695   6.544   2.109   4.458 -0.0056  0.0228 -0.1520
   14TAL    C6530696   6.599   2.508   4.431 -0.1735  0.3487  0.3865
   14TAL    C6630697   6.555   2.577   4.556  0.3683  0.6638 -0.4913
   14TAL    C6730698   6.427   2.660   4.531  0.5121  0.1930  0.3520
   14TAL    C6830699   6.348   2.711   4.652 -0.1698  0.3716  0.2912
   14TAL    C6930700   6.336   2.613   4.773 -0.1247 -0.7210 -0.2857
   14TAL    C7030701   6.286   2.677   4.899 -0.4286 -0.0232 -0.0151
   15HTM    C7130702   6.780   2.248   4.509  0.0001  0.0870 -0.5896
   15HTM    C7230703   6.843   2.315   4.610 -0.0887  0.1360 -0.5670
   15HTM    C7330704   6.977   2.268   4.637 -0.1175  0.1390 -0.4160
   15HTM    C7430705   7.016   2.165   4.556 -0.0505  0.0923 -0.3237
   15HTM     S830706   6.886   2.119   4.440  0.0551  0.0403 -0.4209
   16TAL    C7530707   7.057   2.327   4.755  0.5601 -0.3726  0.8742
   16TAL    C7630708   7.130   2.457   4.712  0.2879 -0.2784 -0.1306
   16TAL    C7730709   7.233   2.513   4.816 -0.0362  0.1968 -0.3457
   16TAL    C7830710   7.338   2.414   4.877  0.1440 -0.3413  0.0525
   16TAL    C7930711   7.435   2.490   4.962  0.6298  0.0800 -0.4166
   16TAL    C8030712   7.558   2.408   5.008  0.1929 -0.5135 -0.1236
   17HTM    C8130713   7.135   2.080   4.557  0.0872  0.0163 -0.1605
   17HTM    C8230714   7.212   2.048   4.665  0.5460  0.7554 -0.2680
   17HTM    C8330715   7.333   1.978   4.630  0.7823  1.2078 -0.3660
   17HTM    C8430716   7.348   1.956   4.497  0.5042  0.8135 -0.3334
   17HTM     S930717   7.209   2.023   4.403 -0.0828 -0.1675 -0.1751
   18TAL    C8530718   7.423   1.941   4.750 -0.7174 -0.1958  0.0926
   18TAL    C8630719   7.535   2.037   4.777 -0.1370  0.1505  0.3840
   18TAL    C8730720   7.615   1.999   4.896 -0.1897 -0.5162  0.0487
   18TAL    C8830721   7.714   1.887   4.863 -0.4844 -0.3784  0.3437
   18TAL    C8930722   7.794   1.848   4.988  0.5055  0.1372  0.0451
   18TAL    C9030723   7.874   1.721   4.977 -0.0684 -0.1716 -0.1661
   19HTM    C9130724   7.453   1.898   4.416  0.0292 -0.1338 -0.2023
   19HTM    C9230725   7.449   1.851   4.288 -0.0505 -0.9112  0.0775
   19HTM    C9330726   7.570   1.784   4.248  0.0188 -0.9390  0.3297
   19HTM    C9430727   7.665   1.779   4.345  0.1514 -0.1829  0.2423
   19HTM    S1030728   7.610   1.860   4.497  0.1996  0.6292 -0.1687
   20TAL    C9530729   7.586   1.729   4.106 -0.4164  0.4259 -0.2346
   20TAL    C9630730   7.496   1.623   4.046  0.0874 -0.1034 -0.4491
   20TAL    C9730731   7.529   1.563   3.911 -0.0934 -0.4672 -0.3301
   20TAL    C9830732   7.520   1.654   3.793 -0.8969 -0.5053 -0.3521
   20TAL    C9930733   7.552   1.572   3.661  0.5420  0.2832  0.6344
   20TAL   C10030734   7.565   1.657   3.541 -0.1287 -0.0668 -0.5495
   21HTM   C10130735   7.805   1.738   4.349 -0.0241  0.1556  0.0533
   21HTM   C10230736   7.846   1.608   4.340 -0.2346  0.0547  0.5455
   21HTM   C10330737   7.989   1.592   4.350 -0.2816 -0.1677  0.8898
   21HTM   C10430738   8.056   1.710   4.366 -0.1067 -0.2364  0.6608
   21HTM    S1130739   7.944   1.851   4.369  0.1323 -0.0238 -0.0136
   22TAL   C10530740   8.046   1.450   4.344  0.0529  0.6143  0.0779
   22TAL   C10630741   7.954   1.336   4.284  0.2758  0.5534  0.3684
   22TAL   C10730742   7.916   1.337   4.138 -0.4721  0.6934 -0.7870
   22TAL   C10830743   7.826   1.215   4.105  0.3859 -0.3193 -0.0501
   22TAL   C10930744   7.747   1.237   3.971  0.2073 -0.2287  0.0007
   22TAL   C11030745   7.668   1.127   3.916  0.3478 -0.4542 -0.1438
   23HTM   C11130746   8.199   1.732   4.375 -0.0687  0.3421  0.4186
   23HTM   C11230747   8.278   1.820   4.308  0.0572  0.6576  0.9837
   23HTM   C11330748   8.418   1.811   4.343  0.0105  0.4057  1.1067
   23HTM   C11430749   8.445   1.715   4.436 -0.1518 -0.1018  0.6354
   23HTM    S1230750   8.295   1.628   4.487 -0.2591 -0.3026 -0.0050
   24TAL   C11530751   8.518   1.906   4.279 -0.2328  0.3345  0.1650
   24TAL   C11630752   8.551   1.855   4.140  0.0345 -0.8865 -0.0914
   24TAL   C11730753   8.659   1.941   4.074 -0.0383 -0.9899  0.4783
   24TAL   C11830754   8.672   1.923   3.926 -0.0296 -0.5038  0.1224
   24TAL   C11930755   8.564   2.007   3.853  0.6415 -0.4371 -0.2186
   24TAL   C12030756   8.571   1.984   3.702 -0.3272 -0.1478 -0.0457
   25HTM   C12130757   8.571   1.668   4.501  0.2012 -0.5021 -0.0451
   25HTM   C12230758   8.577   1.548   4.565  0.5574 -0.3564  0.1969
   25HTM   C12330759   8.710   1.510   4.606  0.6580  0.1591  0.3495
   25HTM   C12430760   8.806   1.601   4.573  0.3800  0.4066  0.2235
   25HTM    S1330761   8.735   1.743   4.486 -0.0354  0.0046 -0.0996
   26TAL   C12530762   8.722   1.383   4.690 -1.1984 -0.1037 -0.4973
   26TAL   C12630763   8.679   1.249   4.632 -0.1307 -1.0443  0.6408
   26TAL   C12730764   8.719   1.214   4.488 -0.4276  0.6748  0.1681
   26TAL   C12830765   8.674   1.092   4.416 -0.1196 -0.1161 -0.0987
   26TAL   C12930766   8.717   1.087   4.270  0.6280  0.2622 -0.5532
   26TAL   C13030767   8.672   0.976   4.179 -0.1220  0.9257  0.8112
   27HTM   C13130768   8.949   1.600   4.578  0.0367 -0.2424 -0.3940
   27HTM   C13230769   9.039   1.702   4.577  0.1140 -0.3111 -0.5417
   27HTM   C13330770   9.171   1.663   4.618  0.0134 -0.2860 -0.1886
   27HTM   C13430771   9.182   1.531   4.650 -0.1410 -0.1981  0.2287
   27HTM    S1430772   9.024   1.445   4.631 -0.1701 -0.1398  0.2073
   28TAL   C13530773   9.288   1.767   4.621  0.8375 -0.0379  0.4415
   28TAL   C13630774   9.314   1.832   4.755 -0.4963 -0.0339 -0.2292
   28TAL   C13730775   9.407   1.950   4.742  0.2297  0.1384  0.2115
   28TAL   C13830776   9.546   1.910   4.691  0.0908 -0.3461 -0.0922
   28TAL   C13930777   9.634   1.838   4.795  0.4195 -0.3703 -0.0957
   28TAL   C14030778   9.777   1.809   4.756  0.1765 -0.4651 -0.2313
   29HTM   C14130779   9.300   1.443   4.673 -0.1217 -0.0238 -0.3731
   29HTM   C14230780   9.427   1.468   4.715  0.0246  0.1599 -0.9160
   29HTM   C14330781   9.509   1.350   4.723  0.0409  0.1910 -0.6442
   29HTM   C14430782   9.444   1.235   4.688 -0.0930  0.0309  0.1060
   29HTM    S1530783   9.273   1.268   4.641 -0.2512 -0.1731  0.5307
   30TAL   C14530784   9.653   1.357   4.770 -0.8868  0.5248  0.3042
   30TAL   C14630785   9.743   1.434   4.678 -0.2719  1.3661  0.1199
   30TAL   C14730786   9.889   1.423   4.709 -0.1282 -0.0828 -0.5345
   30TAL   C14830787   9.978   1.513   4.620 -0.2201  0.0169 -0.6523
   30TAL   C14930788  10.128   1.513   4.635 -0.3249 -0.0640 -0.2031
   30TAL   C15030789  10.196   1.369   4.624  0.4275  0.2057 -0.2527
   31HTM   C15130790   9.487   1.093   4.674 -0.0928  0.1409 -0.1863
   31HTM   C15230791   9.441   1.006   4.580 -0.2788  0.0255  0.0114
   31HTM   C15330792   9.488   0.871   4.598 -0.3818  0.0116  0.1829
   31HTM   C15430793   9.570   0.856   4.706 -0.2743  0.1166  0.1160
   31HTM    S1630794   9.595   1.011   4.793 -0.0328  0.2419 -0.1708
   32TAL   C15530795   9.460   0.769   4.503 -0.0541 -0.1461  0.1024
   32TAL   C15630796   9.328   0.696   4.514  0.0984 -0.1479 -0.0460
   32TAL   C15730797   9.295   0.599   4.404 -0.1367 -0.0944  0.2411
   32TAL   C15830798   9.386   0.478   4.379  0.0517 -0.0733 -0.1765
   32TAL   C15930799   9.321   0.372   4.288  0.1077 -0.2090  0.3088
   32TAL   C16030800   9.425   0.265   4.253 -0.0612  0.8889  0.7326
   33HTM   C16130801   9.627   0.742   4.781  0.1081  0.0225 -0.1876
   33HTM   C16230802   9.686   0.737   4.904  0.0163  0.2311 -0.1342
   33HTM   C16330803   9.728   0.604   4.943 -0.0086  0.2978  0.1197
   33HTM   C16430804   9.700   0.509   4.850  0.0642  0.1399  0.2601
   33HTM    S1730805   9.620   0.578   4.704  0.1706 -0.1070  0.0812
   34TAL   C16530806   9.818   0.588   5.064 -0.0890 -0.0165 -0.0801
   34TAL   C16630807   9.766   0.632   5.210 -0.5556  0.5241  0.5633
   34TAL   C16730808   9.679   0.541   5.294  0.0329 -0.2017  0.1693
   34TAL   C16830809   9.716   0.394   5.284 -0.1179  0.5885  0.1798
   34TAL   C16930810   9.609   0.291   5.318 -0.3090 -0.0950  0.5165
   34TAL   C17030811   9.672   0.155   5.296  0.4110  0.6708  0.2834
   35HTM   C17130812   9.714   0.367   4.848 -0.3112 -0.1645  0.3088
   35HTM   C17230813   9.633   0.273   4.792 -0.3356 -0.1634  0.3421
   35HTM   C17330814   9.672   0.137   4.819 -0.3151 -0.1640  0.3102
   35HTM   C17430815   9.784   0.128   4.896 -0.2751 -0.1655  0.2523
   35HTM    S1830816   9.849   0.290   4.941 -0.2601 -0.1663  0.2338
   36TAL   C17530817   9.594   0.026   4.769 -0.0465  0.1348  0.0933
   36TAL   C17630818   9.531   0.027   4.633 -0.5246 -0.0609 -1.2127
   36TAL   C17730819   9.487  -0.118   4.590 -0.0561  0.1658 -0.2112
   36TAL   C17830820   9.408  -0.134   4.457  0.3130  0.0867 -0.0047
   36TAL   C17930821   9.261  -0.143   4.483  0.1595  0.5415 -0.0311
   36TAL   C18030822   9.175  -0.163   4.361 -0.2798 -0.1280  0.1153
   37HTM   C18130823   9.866   0.013   4.935  0.2028 -0.1551  0.1325
   37HTM   C18230824  10.002   0.007   4.941  0.2038 -0.0664  0.1981
   37HTM   C18330825  10.053  -0.121   4.982  0.2642  0.0010  0.3345
   37HTM   C18430826   9.956  -0.213   5.007  0.3094 -0.0366  0.3730
   37HTM    S1930827   9.791  -0.145   4.981  0.2788 -0.1605  0.2385
   38TAL   C18530828  10.201  -0.150   4.989 -0.1762  0.5436  0.3198
   38TAL   C18630829  10.301  -0.056   4.928  0.7660 -0.3584  0.5420
   38TAL   C18730830  10.361   0.046   5.027  0.6302  0.3709 -0.2460
   38TAL   C18830831  10.472   0.131   4.966 -0.0130  0.0656  0.1083
   38TAL   C18930832  10.547   0.240   5.049 -0.2004 -0.6313  0.1283
   38TAL   C19030833  10.622   0.204   5.174  0.3323  0.2465 -0.1203
   39HTM   C19130834   9.959  -0.357   5.044  0.1351  0.1504 -0.0400
   39HTM   C19230835  10.049  -0.428   5.118  0.0387  0.0072 -0.0594
   39HTM   C19330836  10.013  -0.566   5.136 -0.2044  0.0763 -0.0079
   39HTM   C19430837   9.896  -0.601   5.076 -0.2934  0.2718  0.0503
   39HTM    S2030838   9.822  -0.461   4.990 -0.0754  0.3849  0.0444
   40TAL   C19530839  10.106  -0.660   5.212  0.1396 -0.2332 -0.1912
   40TAL   C19630840  10.258  -0.659   5.202  0.2258  0.1053  0.3180
   40TAL   C19730841  10.310  -0.771   5.288  0.2815 -0.4254 -0.1419
   40TAL   C19830842  10.458  -0.755   5.253 -0.3292  0.1568  0.6859
   40TAL   C19930843  10.552  -0.870   5.282  0.3414 -0.8918 -0.0395
   40TAL   C20030844  10.682  -0.842   5.214 -0.2592  0.7409 -0.1282
   41HTM   C20130845   9.821  -0.723   5.075  0.1722 -0.0140  0.0877
   41HTM   C20230846   9.773  -0.802   5.176  0.2861 -0.1330  0.0501
   41HTM   C20330847   9.694  -0.913   5.130  0.1793 -0.0415  0.0122
   41HTM   C20430848   9.682  -0.919   4.994 -0.0160  0.1467  0.0206
   41HTM    S2130849   9.770  -0.784   4.913 -0.0809  0.2235  0.0781
   42TAL   C20530850   9.640  -1.036   5.215  0.1968  1.0094 -0.2637
   42TAL   C20630851   9.717  -1.077   5.339 -0.6809 -0.1581 -0.2939
   42TAL   C20730852   9.856  -1.139   5.323  0.2218  0.2079  0.0421
   42TAL   C20830853   9.952  -1.130   5.447  0.0668 -0.2051  1.1414
   42TAL   C20930854  10.020  -0.997   5.448 -0.1684 -0.1320  0.0570
   42TAL   C21030855  10.068  -0.954   5.586 -0.0970  0.4257 -0.4986
   43HTM   C21130856   9.615  -1.015   4.911 -0.3026  0.1527 -0.0710
   43HTM   C21230857   9.670  -1.074   4.801 -0.2743  0.2773 -0.1245
   43HTM   C21330858   9.592  -1.183   4.748 -0.0671  0.0832 -0.0343
   43HTM   C21430859   9.477  -1.206   4.818  0.0626 -0.1897  0.0877
   43HTM    S2230860   9.459  -1.092   4.957 -0.0679 -0.2228  0.0985
   44TAL   C21530861   9.640  -1.250   4.620 -0.4261 -0.5740 -1.3523
   44TAL   C21630862   9.786  -1.233   4.568 -0.2010 -1.1609  0.2973
   44TAL   C21730863   9.837  -1.301   4.442 -0.0922 -0.4490 -0.1368
   44TAL   C21830864   9.834  -1.450   4.450 -0.2369  0.1050  0.1389
   44TAL   C21930865   9.886  -1.519   4.328 -0.8093 -0.2422  0.1476
   44TAL   C22030866   9.863  -1.670   4.318 -0.0437 -0.3356 -0.5371
   45HTM   C22130867   9.385  -1.322   4.808 -0.0560  0.1248 -0.0446
   45HTM   C22230868   9.328  -1.374   4.696  0.0988 -0.0222 -0.0563
   45HTM   C22330869   9.249  -1.492   4.720  0.2693 -0.1366 -0.0501
   45HTM   C22430870   9.245  -1.529   4.851  0.2444 -0.0770 -0.0334
   45HTM    S2330871   9.342  -1.419   4.954  0.0019  0.1297 -0.0241
   46TAL   C22530872   9.187  -1.549   4.597 -0.1581  0.3872 -0.2421
   46TAL   C22630873   9.213  -1.705   4.573  0.1648  0.4413  0.0197
   46TAL   C22730874   9.120  -1.779   4.473 -0.5359 -0.2408  0.2966
   46TAL   C22830875   9.174  -1.918   4.467  0.4279  0.2699  0.1333
   46TAL   C22930876   9.090  -2.019   4.382 -0.4566 -0.0169  0.2853
   46TAL   C23030877   9.156  -2.156   4.372  0.2538  0.1467  0.5454
   47HTM   C23130878   9.170  -1.639   4.917 -0.2325 -0.0709  0.3511
   47HTM   C23230879   9.233  -1.732   4.994 -0.2273 -0.6073 -0.2890
   47HTM   C23330880   9.149  -1.843   5.031 -0.2755 -0.7749 -0.9034
   47HTM   C23430881   9.022  -1.835   4.981 -0.3173 -0.3664 -0.7320
   47HTM    S2430882   8.999  -1.685   4.884 -0.2991  0.2664  0.2263
   48TAL   C23530883   9.208  -1.948   5.120 -0.1526  0.3991 -0.5499
   48TAL   C23630884   9.122  -2.050   5.197 -0.1871 -0.4027 -0.5820
   48TAL   C23730885   9.081  -2.172   5.113  0.0507 -0.6180 -0.0465
   48TAL   C23830886   8.966  -2.258   5.169  0.3525  0.2383 -0.4451
   48TAL   C23930887   8.835  -2.192   5.183 -1.0376  0.5196  0.0873
   48TAL   C24030888   8.720  -2.294   5.170  0.9156  0.0483 -0.2297
    1HTM     C130889   0.987   3.899   2.528  0.1955 -0.0717 -0.0703
    1HTM     C230890   0.951   3.797   2.610  0.0401 -0.0372 -0.0957
    1HTM     C330891   1.046   3.689   2.614 -0.1031 -0.1645 -0.0901
    1HTM     C430892   1.155   3.710   2.535 -0.0568 -0.2960 -0.0605
    1HTM     S130893   1.146   3.868   2.449  0.1729 -0.2693 -0.0373
    2TAL     C530894   1.036   3.565   2.702  0.5607  0.0827 -0.1703
    2TAL     C630895   0.901   3.515   2.754 -0.0081 -0.0520  0.2244
    2TAL     C730896   0.898   3.370   2.813  0.0849  0.0560  0.2065
    2TAL     C830897   0.962   3.259   2.727  0.2139  0.1056 -0.0357
    2TAL     C930898   0.917   3.243   2.585 -0.0889 -0.3860  0.8355
    2TAL    C1030899   1.018   3.143   2.511  0.9771 -0.0867  0.4999
    3HTM    C1130900   1.264   3.620   2.495 -0.2646  0.1598 -0.2014
    3HTM    C1230901   1.397   3.647   2.482 -0.3198  0.3544 -0.3620
    3HTM    C1330902   1.476   3.533   2.446 -0.1682  0.4282 -0.2621
    3HTM    C1430903   1.404   3.418   2.431  0.0025  0.2900 -0.0255
    3HTM     S230904   1.228   3.446   2.462 -0.0151  0.0539  0.0910
    4TAL    C1530905   1.628   3.550   2.421  0.0434 -0.8283 -0.3738
    4TAL    C1630906   1.711   3.595   2.535 -0.1153  0.4273  0.7898
    4TAL    C1730907   1.855   3.627   2.496  0.3051 -0.6435 -0.7568
    4TAL    C1830908   1.929   3.691   2.614 -0.4528  0.6297 -0.0174
    4TAL    C1930909   2.068   3.716   2.560 -0.7557  0.2411  0.4159
    4TAL    C2030910   2.159   3.748   2.673  0.0042 -0.0043  0.0490
    5HTM    C2130911   1.450   3.284   2.405  0.2218 -0.0127  0.2887
    5HTM    C2230912   1.381   3.182   2.347  0.0633 -0.1515  0.7182
    5HTM    C2330913   1.451   3.056   2.350  0.0713 -0.1451  0.8228
    5HTM    C2430914   1.574   3.063   2.410  0.2360 -0.0013  0.4732
    5HTM     S330915   1.610   3.230   2.468  0.3950  0.1383 -0.0191
    6TAL    C2530916   1.389   2.935   2.279 -0.0730 -0.6057  0.2802
    6TAL    C2630917   1.300   2.848   2.369  0.1579 -0.2175 -0.4074
    6TAL    C2730918   1.235   2.735   2.300 -0.2161 -0.4105  0.6724
    6TAL    C2830919   1.309   2.604   2.316 -0.0605 -1.1454  0.2927
    6TAL    C2930920   1.261   2.481   2.236  0.2029  0.4550 -0.0586
    6TAL    C3030921   1.347   2.353   2.243  0.5065 -0.1802  0.3950
    7HTM    C3130922   1.674   2.960   2.422 -0.5417 -0.1257 -0.0358
    7HTM    C3230923   1.807   2.973   2.398 -0.6239  0.0449 -0.3999
    7HTM    C3330924   1.879   2.848   2.400 -0.4485  0.1428 -0.5375
    7HTM    C3430925   1.800   2.740   2.426 -0.2327  0.0467 -0.2784
    7HTM     S430926   1.628   2.788   2.450 -0.2342 -0.1767  0.1631
    8TAL    C3530927   2.031   2.835   2.375 -0.8644  0.2709  0.1598
    8TAL    C3630928   2.123   2.838   2.500 -0.0181 -0.1125 -0.4619
    8TAL    C3730929   2.267   2.796   2.481  0.1812  0.3309 -0.1588
    8TAL    C3830930   2.331   2.796   2.617  0.2964  0.3124 -0.1780
    8TAL    C3930931   2.463   2.727   2.625  0.1613  0.9533 -0.0280
    8TAL    C4030932   2.546   2.714   2.751  1.0345  0.8212 -0.1845
    9HTM    C4130933   1.824   2.596   2.413  0.0848 -0.0011  0.0497
    9HTM    C4230934   1.927   2.521   2.461  0.0641 -0.2223 -0.2495
    9HTM    C4330935   1.918   2.382   2.427 -0.3295 -0.2024 -0.2314
    9HTM    C4430936   1.808   2.350   2.353 -0.6091  0.0337  0.0815
    9HTM     S530937   1.706   2.496   2.320 -0.3951  0.2512  0.3800
   10TAL    C4530938   2.021   2.279   2.479  0.1429 -0.1194  0.1751
   10TAL    C4630939   2.152   2.325   2.545  0.6479 -0.2524 -0.2756
   10TAL    C4730940   2.215   2.217   2.634 -0.4024 -0.1729 -0.4029
   10TAL    C4830941   2.354   2.244   2.678 -0.1841 -0.4887 -0.6013
   10TAL    C4930942   2.455   2.275   2.567  0.0206  0.6252 -0.3842
   10TAL    C5030943   2.592   2.294   2.629  0.4356 -0.0574  0.4863
   11HTM    C5130944   1.754   2.222   2.308 -0.3251 -0.1269 -0.1978
   11HTM    C5230945   1.634   2.166   2.341 -0.4143 -0.1534 -0.5628
   11HTM    C5330946   1.613   2.037   2.282 -0.2593 -0.1025 -0.7309
   11HTM    C5430947   1.716   1.994   2.203 -0.0520 -0.0370 -0.4939
   11HTM     S630948   1.849   2.116   2.199 -0.0360 -0.0345 -0.0365
   12TAL    C5530949   1.487   1.958   2.303 -0.1009  0.8458  0.1218
   12TAL    C5630950   1.351   1.996   2.250  0.4665 -0.1804  0.2751
   12TAL    C5730951   1.331   2.003   2.101 -0.8594  0.1397 -0.3886
   12TAL    C5830952   1.359   1.868   2.025 -0.1851  0.0539 -0.7270
   12TAL    C5930953   1.334   1.878   1.874 -0.2489 -0.5817 -0.1404
   12TAL    C6030954   1.380   1.758   1.787 -0.0603 -0.5400 -0.3248
   13HTM    C6130955   1.746   1.863   2.143  0.4228  0.1529 -0.3582
   13HTM    C6230956   1.708   1.808   2.024  0.3179 -0.2155 -0.1544
   13HTM    C6330957   1.784   1.692   1.987  0.1645 -0.4388  0.2257
   13HTM    C6430958   1.881   1.658   2.078  0.1525 -0.2406  0.3122
   13HTM     S730959   1.882   1.772   2.218  0.3354  0.2473 -0.0832
   14TAL    C6530960   1.750   1.630   1.849  0.2749  0.5230  0.2868
   14TAL    C6630961   1.675   1.496   1.863  0.6328 -0.2836  0.2150
   14TAL    C6730962   1.639   1.427   1.736 -0.2876 -0.3520 -0.2539
   14TAL    C6830963   1.581   1.285   1.759 -0.1808  0.7558  0.0693
   14TAL    C6930964   1.668   1.171   1.824 -0.6077  0.2002 -0.1395
   14TAL    C7030965   1.813   1.162   1.757 -0.0551  0.0522  0.1888
   15HTM    C7130966   1.988   1.565   2.074 -0.0551 -0.1064  0.2161
   15HTM    C7230967   2.119   1.591   2.105 -0.0795 -0.0912  0.3070
   15HTM    C7330968   2.202   1.473   2.108 -0.0203 -0.0541  0.1423
   15HTM    C7430969   2.134   1.358   2.079  0.0491 -0.0410 -0.0740
   15HTM     S830970   1.960   1.389   2.045  0.0453 -0.0749 -0.0866
   16TAL    C7530971   2.348   1.497   2.133 -0.3695 -0.0308 -0.2725
   16TAL    C7630972   2.403   1.510   2.277 -0.2824  0.5049  0.0898
   16TAL    C7730973   2.367   1.632   2.379 -0.5897  1.1382  0.3739
   16TAL    C7830974   2.463   1.629   2.499 -0.2764 -0.1888 -0.0391
   16TAL    C7930975   2.441   1.724   2.615 -0.4580 -0.4909 -0.5186
   16TAL    C8030976   2.455   1.872   2.579 -0.3399  0.2015 -0.6071
   17HTM    C8130977   2.183   1.224   2.077  0.1652 -0.1971  0.4764
   17HTM    C8230978   2.113   1.124   2.015 -0.2354 -0.2921  1.0691
   17HTM    C8330979   2.182   0.997   2.014 -0.2495 -0.2990  0.8447
   17HTM    C8430980   2.303   1.000   2.076  0.1405 -0.2091  0.0813
   17HTM     S930981   2.341   1.165   2.140  0.5590 -0.1081 -0.4178
   18TAL    C8530982   2.110   0.875   1.957 -0.5163  0.1242 -0.0141
   18TAL    C8630983   1.985   0.815   2.034 -0.2183 -0.2148  0.3991
   18TAL    C8730984   1.855   0.889   2.049  0.7204  0.4177  1.1653
   18TAL    C8830985   1.775   0.818   2.157  0.6288  0.0748 -0.5893
   18TAL    C8930986   1.670   0.916   2.215  0.5161 -0.2722 -0.8497
   18TAL    C9030987   1.573   0.861   2.328  0.0405  0.1336 -0.6680
   19HTM    C9130988   2.403   0.902   2.099  0.1253 -0.0641  0.9162
   19HTM    C9230989   2.519   0.925   2.169  0.2584 -0.4202  0.8124
   19HTM    C9330990   2.611   0.814   2.166  0.2581 -0.4027  0.0610
   19HTM    C9430991   2.566   0.707   2.094  0.1249 -0.0334 -0.4083
   19HTM    S1030992   2.402   0.739   2.024 -0.0117  0.3239  0.0661
   20TAL    C9530993   2.748   0.833   2.223 -0.1554 -0.1828 -0.3468
   20TAL    C9630994   2.770   0.790   2.371  0.8000 -0.4700 -0.0943
   20TAL    C9730995   2.878   0.860   2.448  0.2493 -0.8456  0.3526
   20TAL    C9830996   2.864   0.835   2.594  0.3510 -0.8888 -0.1032
   20TAL    C9930997   2.930   0.945   2.672  0.1724 -0.2602  0.1875
   20TAL   C10030998   2.948   0.914   2.821 -0.0673 -0.7117  0.5515
   21HTM   C10130999   2.635   0.584   2.061  0.0800  0.2388  0.7751
   21HTM   C10231000   2.761   0.571   2.013  0.3576  0.3518  1.4629
   21HTM   C10331001   2.802   0.434   1.993  0.4351  0.4005  1.2845
   21HTM   C10431002   2.706   0.343   2.026  0.2167  0.3246  0.4610
   21HTM    S1131003   2.556   0.424   2.085 -0.1066  0.1846 -0.1581
   22TAL   C10531004   2.940   0.408   1.936  0.1292 -0.2870 -0.3026
   22TAL   C10631005   3.054   0.444   2.030 -0.2417  0.2909  0.1521
   22TAL   C10731006   3.060   0.379   2.170 -0.4053 -0.5335  0.2475
   22TAL   C10831007   3.074   0.230   2.162 -0.0997  0.8082 -0.5344
   22TAL   C10931008   3.094   0.172   2.300 -0.1901  0.5384  0.0785
   22TAL   C11031009   3.132   0.022   2.299 -0.0217 -0.1336 -0.3853
   23HTM   C11131010   2.702   0.198   2.024 -0.1934  0.1913  0.4023
   23HTM   C11231011   2.810   0.116   2.028 -0.1396  0.2633  0.4313
   23HTM   C11331012   2.777  -0.024   2.023 -0.0273  0.2484  0.0840
   23HTM   C11431013   2.643  -0.048   2.015  0.0042  0.1645 -0.2097
   23HTM    S1231014   2.548   0.105   2.014 -0.1062  0.0981 -0.0695
   24TAL   C11531015   2.888  -0.134   2.021 -0.6887 -0.1888  0.1234
   24TAL   C11631016   2.945  -0.158   1.888 -0.2122  0.1048  0.6686
   24TAL   C11731017   3.084  -0.108   1.867 -0.5732 -0.2094  0.0914
   24TAL   C11831018   3.190  -0.132   1.975  0.4398  0.8229 -0.0180
   24TAL   C11931019   3.331  -0.084   1.940 -0.0262  0.1180  0.3198
   24TAL   C12031020   3.345   0.064   1.927  0.5461  0.1365 -0.4824
   25HTM   C12131021   2.567  -0.171   2.002  0.0844 -0.2455  0.1874
   25HTM   C12231022   2.615  -0.298   2.015 -0.1625 -0.3333  0.2289
   25HTM   C12331023   2.513  -0.400   2.010 -0.3231 -0.1574 -0.0684
   25HTM   C12431024   2.387  -0.350   1.993 -0.1985  0.0654 -0.3365
   25HTM    S1331025   2.388  -0.170   1.982  0.1339  0.0701 -0.2336
   26TAL   C12531026   2.553  -0.546   2.032 -0.0712 -0.3461  0.0761
   26TAL   C12631027   2.671  -0.591   1.946  0.1449  0.0471 -0.2162
   26TAL   C12731028   2.728  -0.729   1.967 -0.3410 -0.4511 -0.7465
   26TAL   C12831029   2.650  -0.860   1.921  0.1053  0.7099 -0.8054
   26TAL   C12931030   2.494  -0.882   1.943 -0.3847  0.1738 -0.3975
   26TAL   C13031031   2.446  -1.023   1.895  0.2444 -0.0336  0.3086
   27HTM   C13131032   2.266  -0.420   1.972  0.6681 -0.6360  0.2106
   27HTM   C13231033   2.147  -0.388   2.029  1.0645 -1.0710  1.3155
   27HTM   C13331034   2.036  -0.466   1.979  0.7379 -0.8140  1.6353
   27HTM   C13431035   2.071  -0.557   1.884  0.0924 -0.1832  0.7742
   27HTM    S1431036   2.248  -0.551   1.850 -0.1549  0.1374 -0.5173
   28TAL   C13531037   1.893  -0.445   2.031  0.5525  0.6463 -0.9173
   28TAL   C13631038   1.837  -0.311   2.072  0.1523  0.0178 -0.1299
   28TAL   C13731039   1.694  -0.316   2.110  0.2588  0.0396 -0.4431
   28TAL   C13831040   1.662  -0.197   2.191 -0.7805 -0.4887  0.2383
   28TAL   C13931041   1.522  -0.164   2.219 -0.3282 -0.2121  0.1326
   28TAL   C14031042   1.459  -0.074   2.111  0.2846  0.2475 -0.4164
   29HTM   C14131043   1.995  -0.660   1.809 -0.3518 -0.1415  0.1502
   29HTM   C14231044   2.033  -0.791   1.797 -0.5389 -0.2193  0.3964
   29HTM   C14331045   1.944  -0.870   1.716 -0.4504 -0.1583  0.2410
   29HTM   C14431046   1.839  -0.799   1.665 -0.1959 -0.0351 -0.1236
   29HTM    S1531047   1.844  -0.627   1.717 -0.0471  0.0143 -0.3003
   30TAL   C14531048   1.960  -1.017   1.683  0.1106  0.1406  0.2826
   30TAL   C14631049   2.100  -1.082   1.713 -0.0489 -0.5834  0.0241
   30TAL   C14731050   2.096  -1.227   1.680 -0.3377 -0.5085  0.8782
   30TAL   C14831051   2.231  -1.301   1.685 -0.3289 -0.6239 -0.0953
   30TAL   C14931052   2.215  -1.444   1.644  0.5567  0.3376 -1.1406
   30TAL   C15031053   2.338  -1.536   1.663  0.0633  0.6264  0.0364
   31HTM   C15131054   1.736  -0.844   1.566 -0.0500 -0.1468  0.2580
   31HTM   C15231055   1.703  -0.781   1.449 -0.2913 -0.0658  0.3674
   31HTM   C15331056   1.613  -0.857   1.366 -0.4755 -0.0014  0.5077
   31HTM   C15431057   1.577  -0.977   1.420 -0.3746 -0.0325  0.5052
   31HTM    S1631058   1.655  -1.004   1.581 -0.0364 -0.1478  0.3241
   32TAL   C15531059   1.590  -0.801   1.228  0.2121 -0.1313 -0.6021
   32TAL   C15631060   1.655  -0.882   1.116  0.5428 -0.4231 -0.0847
   32TAL   C15731061   1.781  -0.962   1.150 -0.2722  0.3313  0.2160
   32TAL   C15831062   1.861  -1.007   1.030  0.1922  1.3262 -0.2683
   32TAL   C15931063   1.999  -1.055   1.065 -0.2528  0.4900 -0.2892
   32TAL   C16031064   2.097  -0.950   1.107 -0.2308 -0.4801 -0.4902
   33HTM   C16131065   1.471  -1.073   1.381 -0.3249 -0.0184 -0.0395
   33HTM   C16231066   1.360  -1.049   1.306 -0.1258 -0.3281 -0.4312
   33HTM   C16331067   1.275  -1.164   1.291  0.1872 -0.5355 -0.6377
   33HTM   C16431068   1.321  -1.275   1.355  0.2269 -0.3843 -0.4035
   33HTM    S1731069   1.477  -1.243   1.440 -0.1308  0.0355  0.1001
   34TAL   C16531070   1.143  -1.150   1.215 -0.3114  0.3092 -0.0011
   34TAL   C16631071   1.146  -1.168   1.062  0.3932  0.1391 -0.1433
   34TAL   C16731072   1.230  -1.062   0.990 -0.1367 -0.2575  0.0108
   34TAL   C16831073   1.379  -1.087   0.961 -0.4151  0.0032 -0.2730
   34TAL   C16931074   1.419  -1.210   0.891 -0.1951  0.3861 -0.3254
   34TAL   C17031075   1.571  -1.246   0.897  0.7344 -0.1853  0.2455
   35HTM   C17131076   1.250  -1.393   1.376  0.3154 -0.1436 -0.0304
   35HTM   C17231077   1.205  -1.490   1.291  0.0127 -0.0863  0.0609
   35HTM   C17331078   1.145  -1.602   1.358 -0.4110  0.2003  0.1625
   35HTM   C17431079   1.143  -1.591   1.494 -0.4314  0.3618  0.1488
   35HTM    S1831080   1.218  -1.436   1.548  0.0869  0.1628  0.0054
   36TAL   C17531081   1.100  -1.732   1.290  0.4444 -0.1067 -0.0665
   36TAL   C17631082   1.133  -1.770   1.143  0.0050  0.0421  0.1153
   36TAL   C17731083   1.041  -1.882   1.095  0.3048 -0.3817 -0.0939
   36TAL   C17831084   1.080  -2.021   1.132  0.0014  0.0227 -0.1038
   36TAL   C17931085   0.992  -2.130   1.079  0.0527  0.2993 -0.3801
   36TAL   C18031086   1.043  -2.270   1.093 -0.3216 -0.0432  0.4954
   37HTM   C18131087   1.089  -1.681   1.599  0.2975  0.1268  0.0460
   37HTM   C18231088   0.958  -1.702   1.631  0.2513  0.2799 -0.0407
   37HTM   C18331089   0.937  -1.815   1.718  0.0489  0.2298 -0.1537
   37HTM   C18431090   1.052  -1.880   1.752 -0.0592  0.0385 -0.1533
   37HTM    S1931091   1.197  -1.803   1.676  0.0873 -0.0945 -0.0089
   38TAL   C18531092   0.790  -1.860   1.745  0.3420 -0.6050 -0.4136
   38TAL   C18631093   0.670  -1.757   1.731 -0.2741  0.4012  0.1226
   38TAL   C18731094   0.548  -1.802   1.809  1.0132 -0.2914  0.4016
   38TAL   C18831095   0.443  -1.691   1.812 -0.3155 -0.1401 -0.0585
   38TAL   C18931096   0.373  -1.666   1.677 -0.1788 -0.5610 -0.9892
   38TAL   C19031097   0.263  -1.556   1.690 -0.2357 -0.6310 -0.5471
   39HTM   C19131098   1.083  -1.995   1.839 -0.0639  0.1109 -0.2363
   39HTM   C19231099   1.211  -2.040   1.855 -0.1154  0.0024 -0.1313
   39HTM   C19331100   1.219  -2.167   1.922 -0.2706  0.0627  0.0030
   39HTM   C19431101   1.098  -2.219   1.957 -0.3374  0.2173  0.0002
   39HTM    S2031102   0.963  -2.110   1.908 -0.2085  0.2995 -0.1734
   40TAL   C19531103   1.362  -2.235   1.939  0.3329 -0.3023 -0.4999
   40TAL   C19631104   1.488  -2.155   1.906 -0.0235 -0.3387  0.2373
   40TAL   C19731105   1.622  -2.238   1.906 -0.6808 -0.0493 -0.3384
   40TAL   C19831106   1.752  -2.158   1.881  0.3157  0.1115 -0.1855
   40TAL   C19931107   1.777  -2.025   1.945  0.4075 -0.1564 -0.4171
   40TAL   C20031108   1.846  -2.022   2.080  0.4461  0.2122  0.4952
   41HTM   C20131109   1.053  -2.353   2.000 -0.6273  0.3102  0.0382
   41HTM   C20231110   1.095  -2.429   2.105 -0.8180  0.7513  0.4381
   41HTM   C20331111   1.017  -2.548   2.124 -0.6191  0.6416  0.5655
   41HTM   C20431112   0.916  -2.563   2.034 -0.2767  0.1168  0.2629
   41HTM    S2131113   0.911  -2.426   1.916 -0.1782 -0.2828 -0.2103
   42TAL   C20531114   1.049  -2.659   2.225 -0.0339  0.2395 -0.1655
   42TAL   C20631115   1.180  -2.742   2.212 -0.1856 -0.7634  0.0697
   42TAL   C20731116   1.319  -2.684   2.183  0.2153 -0.2097  0.6924
   42TAL   C20831117   1.384  -2.610   2.301 -0.1383  0.3490  0.4953
   42TAL   C20931118   1.526  -2.563   2.268  0.6464 -0.3540  0.5569
   42TAL   C21031119   1.569  -2.454   2.371  0.2209 -0.4271  0.4025
   43HTM   C21131120   0.803  -2.653   2.024  0.4065  0.1259 -0.2478
   43HTM   C21231121   0.799  -2.788   2.040  0.7521  0.1285 -0.1299
   43HTM   C21331122   0.666  -2.843   2.030  0.8418 -0.1702  0.3133
   43HTM   C21431123   0.569  -2.750   2.006  0.5647 -0.4005  0.5332
   43HTM    S2231124   0.639  -2.584   1.994  0.1659 -0.2570  0.1950
   44TAL   C21531125   0.654  -2.990   2.045 -0.4870 -1.0178 -1.3022
   44TAL   C21631126   0.671  -3.060   1.915 -0.2624 -0.8530 -0.0551
   44TAL   C21731127   0.677  -3.211   1.902 -0.1550 -0.0083  0.5798
   44TAL   C21831128   0.674  -3.264   1.756  0.7666  0.7648 -0.2789
   44TAL   C21931129   0.539  -3.239   1.686 -0.3419  0.2674  0.5671
   44TAL   C22031130   0.520  -3.327   1.565  0.0407  0.0733  0.3458
   45HTM   C22131131   0.429  -2.763   1.977 -0.2302  0.2878 -0.2702
   45HTM   C22231132   0.346  -2.665   1.930 -0.4543 -0.0262 -0.5374
   45HTM   C22331133   0.209  -2.707   1.914 -0.3632 -0.3755 -0.4012
   45HTM   C22431134   0.188  -2.837   1.949 -0.0697 -0.3273 -0.0304
   45HTM    S2331135   0.340  -2.917   2.005  0.1159  0.1666  0.1775
   46TAL   C22531136   0.104  -2.606   1.867 -0.2107  0.1945 -0.2403
   46TAL   C22631137   0.114  -2.580   1.722 -0.2211  0.6840 -0.0287
   46TAL   C22731138  -0.002  -2.515   1.651 -0.2087 -0.3193 -0.5369
   46TAL   C22831139  -0.048  -2.379   1.698 -0.2543 -0.5183 -0.5199
   46TAL   C22931140  -0.145  -2.310   1.610 -0.1863  0.7390 -0.0831
   46TAL   C23031141  -0.232  -2.208   1.680 -0.0517  0.4616  0.6939
   47HTM   C23131142   0.069  -2.926   1.965 -0.3951  0.3480  0.1460
   47HTM   C23231143   0.049  -3.019   2.062 -0.2624  0.3381  0.1650
   47HTM   C23331144  -0.079  -3.085   2.053 -0.1249  0.0784  0.1142
   47HTM   C23431145  -0.156  -3.042   1.949 -0.1524 -0.1094  0.0565
   47HTM    S2431146  -0.072  -2.914   1.854 -0.3566  0.0276  0.0619
   48TAL   C23531147  -0.131  -3.188   2.152 -0.0517 -0.4584  0.4664
   48TAL   C23631148  -0.095  -3.338   2.125  0.0060  0.0236  0.5826
   48TAL   C23731149  -0.142  -3.416   2.000 -0.1246  0.0414 -0.2729
   48TAL   C23831150  -0.284  -3.424   1.968  0.6588  0.2292 -0.2545
   48TAL   C23931151  -0.310  -3.536   1.872  0.1976  0.1256 -0.9495
   48TAL   C24031152  -0.452  -3.536   1.824  0.3058  0.5563 -0.4604
    1HTM     C131153   7.949   3.603   8.282 -0.0077 -0.0478  0.8805
    1HTM     C231154   7.937   3.706   8.370  0.3426  0.1136  0.7439
    1HTM     C331155   8.061   3.772   8.400  0.4773  0.1199  0.1888
    1HTM     C431156   8.169   3.719   8.336  0.2300 -0.0368 -0.0978
    1HTM     S131157   8.121   3.580   8.231 -0.1953 -0.2058  0.3151
    2TAL     C531158   8.083   3.868   8.518 -0.4942 -0.8371 -0.4419
    2TAL     C631159   7.978   3.935   8.600 -0.1994 -0.2229 -0.5187
    2TAL     C731160   8.025   4.071   8.655 -0.1586  0.3173  0.0325
    2TAL     C831161   7.910   4.161   8.706 -0.1934  0.2854  0.4156
    2TAL     C931162   7.974   4.290   8.764 -0.6106  0.1868  0.1333
    2TAL    C1031163   7.892   4.379   8.851 -0.4921  0.4876  0.2233
    3HTM    C1131164   8.310   3.744   8.344 -0.3711 -0.7204  0.5627
    3HTM    C1231165   8.382   3.853   8.384 -0.4754 -0.7812  0.9179
    3HTM    C1331166   8.522   3.846   8.349 -0.5350 -0.3804  0.5941
    3HTM    C1431167   8.556   3.732   8.282 -0.4766 -0.0140 -0.0079
    3HTM     S231168   8.414   3.624   8.258 -0.3403 -0.1475 -0.2147
    4TAL    C1531169   8.619   3.960   8.384 -0.1906 -0.4754 -0.0506
    4TAL    C1631170   8.720   3.934   8.495  0.8039 -0.3056 -0.2992
    4TAL    C1731171   8.831   4.044   8.484  0.6394  0.3708  0.0660
    4TAL    C1831172   8.942   4.037   8.580 -0.4159 -0.2592 -0.4208
    4TAL    C1931173   9.049   4.151   8.570 -0.1526 -0.0548 -0.9743
    4TAL    C2031174   9.173   4.123   8.653 -0.2585  0.2712  0.0536
    5HTM    C2131175   8.687   3.685   8.237  0.1531  0.0931  0.1245
    5HTM    C2231176   8.802   3.663   8.307  0.2217  0.0710  0.0057
    5HTM    C2331177   8.905   3.597   8.231  0.0763 -0.0851 -0.0544
    5HTM    C2431178   8.868   3.568   8.103 -0.1034 -0.1825  0.0187
    5HTM     S331179   8.700   3.623   8.068 -0.1026 -0.0832  0.1699
    6TAL    C2531180   9.047   3.591   8.273 -0.2883 -0.3686 -0.7486
    6TAL    C2631181   9.100   3.727   8.316 -0.2300  0.1654 -0.0120
    6TAL    C2731182   9.124   3.832   8.208 -0.4623  0.0405 -0.4322
    6TAL    C2831183   9.170   3.966   8.268 -0.0460  0.0861 -0.4160
    6TAL    C2931184   9.202   4.083   8.176  0.3430 -0.0293  0.3220
    6TAL    C3031185   9.261   4.212   8.236  0.8389 -0.0501  0.1801
    7HTM    C3131186   8.940   3.500   7.996 -0.2820 -0.1347  0.1001
    7HTM    C3231187   9.005   3.555   7.890 -0.1149 -0.1624  0.1884
    7HTM    C3331188   9.086   3.462   7.816 -0.1221 -0.2149  0.2475
    7HTM    C3431189   9.083   3.335   7.866 -0.2945 -0.2271  0.2045
    7HTM     S431190   8.976   3.324   8.011 -0.4631 -0.1730  0.0846
    8TAL    C3531191   9.188   3.519   7.712 -0.2502  0.1027  0.0120
    8TAL    C3631192   9.209   3.669   7.684 -0.2966 -0.5991 -0.4947
    8TAL    C3731193   9.246   3.758   7.809  0.2882 -0.3954 -0.1661
    8TAL    C3831194   9.164   3.887   7.827  0.6560  0.3177 -0.3590
    8TAL    C3931195   9.019   3.898   7.801 -0.0226  0.1973  0.4442
    8TAL    C4031196   8.960   4.030   7.847  0.1724  0.1425 -0.0729
    9HTM    C4131197   9.161   3.222   7.819 -0.5408 -0.1714 -0.3564
    9HTM    C4231198   9.270   3.215   7.737 -0.7775 -0.2992 -0.6611
    9HTM    C4331199   9.328   3.083   7.729 -0.8342 -0.3238 -0.6690
    9HTM    C4431200   9.264   2.990   7.805 -0.6409 -0.2148 -0.3703
    9HTM     S531201   9.124   3.062   7.893 -0.3700 -0.0714 -0.0536
   10TAL    C4531202   9.443   3.045   7.632  0.4498 -0.0269 -0.4727
   10TAL    C4631203   9.537   3.149   7.559  0.0001 -0.9050  0.4934
   10TAL    C4731204   9.595   3.272   7.637  0.6563 -0.0788  0.3165
   10TAL    C4831205   9.676   3.366   7.552 -0.1957 -0.3695 -0.3440
   10TAL    C4931206   9.613   3.419   7.428 -0.8006 -0.1057  0.5541
   10TAL    C5031207   9.471   3.474   7.439 -0.2208 -0.1365  0.6663
   11HTM    C5131208   9.294   2.856   7.832  0.1582 -0.0720 -0.1544
   11HTM    C5231209   9.216   2.760   7.889  0.0918 -0.1659 -0.4005
   11HTM    C5331210   9.281   2.633   7.902  0.0954 -0.1727 -0.4861
   11HTM    C5431211   9.409   2.631   7.854  0.1646 -0.0836 -0.3046
   11HTM     S631212   9.457   2.792   7.789  0.2311  0.0165 -0.0097
   12TAL    C5531213   9.204   2.504   7.950 -0.4860  0.5933  0.2836
   12TAL    C5631214   9.056   2.507   8.002  0.0699  0.2149  0.1360
   12TAL    C5731215   9.002   2.370   8.029  0.5544 -0.0235 -0.5043
   12TAL    C5831216   8.983   2.269   7.924 -0.0777  0.1882 -0.0630
   12TAL    C5931217   8.906   2.147   7.978  0.3773 -0.0170 -0.0598
   12TAL    C6031218   8.882   2.042   7.871 -0.1322 -0.5138  0.5793
   13HTM    C6131219   9.509   2.526   7.856 -0.9073 -0.1227  0.2737
   13HTM    C6231220   9.560   2.460   7.748 -1.0778 -0.2869  0.2925
   13HTM    C6331221   9.652   2.355   7.782 -0.8893 -0.1203  0.3033
   13HTM    C6431222   9.671   2.341   7.917 -0.5750  0.1710  0.2924
   13HTM     S731223   9.574   2.460   8.010 -0.4922  0.2583  0.2674
   14TAL    C6531224   9.710   2.258   7.676 -0.1986  0.7200  0.1834
   14TAL    C6631225   9.844   2.293   7.612  0.5449  0.3900 -0.3718
   14TAL    C6731226   9.865   2.422   7.537  0.1069 -0.0688  0.0418
   14TAL    C6831227  10.007   2.420   7.475  0.5773 -0.8558 -0.1152
   14TAL    C6931228  10.034   2.536   7.383 -0.4253  0.0263 -0.5199
   14TAL    C7031229  10.172   2.525   7.322 -0.8765  0.2749  0.3217
   15HTM    C7131230   9.749   2.246   7.991  0.1320 -0.1262 -0.0116
   15HTM    C7231231   9.766   2.112   7.976 -0.0948 -0.1667  0.0753
   15HTM    C7331232   9.864   2.056   8.066 -0.0615 -0.2426 -0.0076
   15HTM    C7431233   9.921   2.147   8.150  0.1907 -0.2606 -0.1577
   15HTM     S831234   9.854   2.313   8.121  0.4074 -0.1818 -0.2064
   16TAL    C7531235   9.902   1.907   8.061 -0.1649  0.0247  0.2054
   16TAL    C7631236   9.823   1.821   7.950 -1.0044  0.2746  0.6929
   16TAL    C7731237   9.886   1.680   7.941  0.2119 -0.3490 -0.4762
   16TAL    C7831238   9.799   1.600   7.854 -0.0014  0.0756 -0.0153
   16TAL    C7931239   9.860   1.465   7.828  0.6132 -0.2054 -0.0608
   16TAL    C8031240   9.776   1.362   7.757 -0.5242 -0.5868  0.1501
   17HTM    C8131241  10.016   2.139   8.262 -0.0271 -0.1096  0.0100
   17HTM    C8231242  10.033   2.041   8.356  0.4032 -0.0855 -0.0410
   17HTM    C8331243  10.137   2.069   8.451  0.4955  0.1754 -0.2193
   17HTM    C8431244  10.199   2.189   8.430  0.1357  0.3501 -0.3037
   17HTM     S931245  10.131   2.275   8.287 -0.3514  0.1976 -0.1642
   18TAL    C8531246  10.172   1.974   8.562  0.1640  0.3679 -0.2679
   18TAL    C8631247  10.297   1.883   8.550 -0.1207 -0.0434  0.5942
   18TAL    C8731248  10.333   1.814   8.415 -0.0407  0.6238 -1.0542
   18TAL    C8831249  10.216   1.718   8.379  0.7012 -0.1598 -0.1615
   18TAL    C8931250  10.240   1.646   8.248 -0.1448  1.3894  0.1064
   18TAL    C9031251  10.121   1.560   8.209 -0.1250  0.5354  0.1692
   19HTM    C9131252  10.318   2.243   8.487  0.5607  0.0477 -0.1775
   19HTM    C9231253  10.449   2.218   8.460  0.6666  0.3529  0.0496
   19HTM    C9331254  10.540   2.312   8.521  0.3570  0.4207  0.4096
   19HTM    C9431255  10.478   2.409   8.594  0.0152  0.1667  0.4567
   19HTM    S1031256  10.298   2.389   8.592  0.0580 -0.1799  0.0473
   20TAL    C9531257  10.688   2.291   8.509 -0.5625 -0.2889  0.0162
   20TAL    C9631258  10.745   2.187   8.410 -0.6369  0.2990  0.5242
   20TAL    C9731259  10.762   2.043   8.455  0.1098 -0.1054  0.2104
   20TAL    C9831260  10.842   1.957   8.362 -0.2566 -0.0656 -0.4569
   20TAL    C9931261  10.908   1.835   8.431  0.2830 -0.0315  0.0076
   20TAL   C10031262  10.992   1.751   8.336  0.1882  0.1890 -0.0953
   21HTM   C10131263  10.536   2.512   8.682 -0.4457  0.1633 -0.1902
   21HTM   C10231264  10.529   2.510   8.818 -0.7899  0.5116 -0.1998
   21HTM   C10331265  10.570   2.633   8.880 -0.7333  0.5949 -0.4020
   21HTM   C10431266  10.608   2.729   8.792 -0.3458  0.3101 -0.5462
   21HTM    S1131267  10.595   2.671   8.621 -0.0199 -0.0885 -0.4375
   22TAL   C10531268  10.582   2.650   9.034 -0.4384  0.1109 -0.8381
   22TAL   C10631269  10.611   2.528   9.130  0.4346 -0.0767  0.6177
   22TAL   C10731270  10.724   2.435   9.097  0.1646  0.5907 -0.8720
   22TAL   C10831271  10.720   2.318   9.193 -0.1789 -0.6312  0.0314
   22TAL   C10931272  10.834   2.223   9.173 -0.9168  0.3577 -0.3777
   22TAL   C11031273  10.847   2.125   9.281  0.0185  0.3148 -0.2596
   23HTM   C11131274  10.680   2.857   8.806 -0.2515 -0.1332  0.1476
   23HTM   C11231275  10.762   2.906   8.708 -0.4563 -0.3819 -0.1526
   23HTM   C11331276  10.826   3.030   8.744 -0.5317 -0.1891 -0.6819
   23HTM   C11431277  10.793   3.075   8.868 -0.3844  0.2067 -0.7861
   23HTM    S1231278  10.678   2.964   8.951 -0.1373  0.3677 -0.2196
   24TAL   C11531279  10.932   3.087   8.650 -0.3248 -0.1543 -0.7042
   24TAL   C11631280  11.011   2.996   8.557 -0.4655 -0.0579  0.1146
   24TAL   C11731281  11.099   2.898   8.636 -0.2311 -0.7972  0.2782
   24TAL   C11831282  11.177   2.786   8.565  0.0666  0.0635 -0.3233
   24TAL   C11931283  11.100   2.667   8.500 -0.1920  0.6001 -0.4332
   24TAL   C12031284  11.008   2.587   8.602  0.1743 -0.3850  0.3218
   25HTM   C12131285  10.833   3.203   8.937 -0.0844  0.1271 -0.1304
   25HTM   C12231286  10.957   3.258   8.953 -0.0460 -0.1427  0.5379
   25HTM   C12331287  10.955   3.388   9.015 -0.0668 -0.2975  0.8626
   25HTM   C12431288  10.830   3.432   9.047 -0.1209 -0.1454  0.4421
   25HTM    S1331289  10.704   3.312   9.000 -0.1502  0.2075 -0.4036
   26TAL   C12531290  11.083   3.464   9.042 -1.0950  0.4175  0.3947
   26TAL   C12631291  11.203   3.432   8.951 -0.2128 -0.2589 -0.5230
   26TAL   C12731292  11.202   3.477   8.809  0.3615  0.1800  0.4445
   26TAL   C12831293  11.236   3.627   8.800  0.0560  0.5776  0.1863
   26TAL   C12931294  11.267   3.680   8.665 -0.1998 -0.3409  0.4987
   26TAL   C13031295  11.295   3.829   8.665  0.1167 -0.4131 -0.0896
   27HTM   C13131296  10.775   3.560   9.105 -0.0405  0.0591  0.1110
   27HTM   C13231297  10.648   3.607   9.113 -0.0379  0.0925 -0.0503
   27HTM   C13331298  10.639   3.745   9.152 -0.0405  0.1674 -0.3109
   27HTM   C13431299  10.760   3.803   9.175 -0.0451  0.1912 -0.3485
   27HTM    S1431300  10.895   3.687   9.148 -0.0464  0.1203 -0.0552
   28TAL   C13531301  10.500   3.801   9.161 -0.1868 -0.6517 -0.3686
   28TAL   C13631302  10.418   3.771   9.285 -0.5369 -0.0282 -0.7567
   28TAL   C13731303  10.380   3.627   9.310 -0.4125  0.1366  0.1263
   28TAL   C13831304  10.320   3.622   9.453 -0.0038  0.2833  0.4450
   28TAL   C13931305  10.246   3.496   9.497  0.3734 -0.0330 -0.6648
   28TAL   C14031306  10.145   3.437   9.399 -0.6831 -0.0811  0.0237
   29HTM   C14131307  10.798   3.938   9.214 -0.2600 -0.0165 -0.2433
   29HTM   C14231308  10.925   3.978   9.244 -0.1571 -0.1019 -0.5636
   29HTM   C14331309  10.932   4.111   9.300  0.0809 -0.0772 -0.6512
   29HTM   C14431310  10.811   4.171   9.313  0.1595  0.0271 -0.3978
   29HTM    S1531311  10.677   4.065   9.255 -0.0629  0.1026 -0.0259
   30TAL   C14531312  11.066   4.173   9.334 -0.2754  0.3949  0.1717
   30TAL   C14631313  11.197   4.088   9.328  0.5147 -0.3434 -0.2041
   30TAL   C14731314  11.321   4.176   9.360  0.5441 -0.4601 -0.0605
   30TAL   C14831315  11.444   4.092   9.371 -1.0223 -0.2436  0.6751
   30TAL   C14931316  11.580   4.170   9.376  0.3869  0.0318  0.0511
   30TAL   C15031317  11.689   4.093   9.454  0.4532 -0.3161  0.1352
   31HTM   C15131318  10.776   4.300   9.372  0.0984 -0.0123  0.0392
   31HTM   C15231319  10.651   4.332   9.416  0.0357 -0.1998 -0.0022
   31HTM   C15331320  10.637   4.470   9.457 -0.1999 -0.2046 -0.0637
   31HTM   C15431321  10.752   4.542   9.445 -0.3168 -0.0202 -0.0691
   31HTM    S1631322  10.887   4.442   9.380 -0.1370  0.1742  0.0035
   32TAL   C15531323  10.510   4.520   9.516 -0.1115 -0.6834 -0.3394
   32TAL   C15631324  10.395   4.540   9.422  1.0898  0.6979  0.0681
   32TAL   C15731325  10.275   4.583   9.501  0.0934 -0.0154  0.2310
   32TAL   C15831326  10.146   4.601   9.406 -0.0390  0.3699 -0.2008
   32TAL   C15931327  10.019   4.660   9.464  0.3527 -0.7569 -0.1144
   32TAL   C16031328  10.023   4.814   9.474  0.7561 -0.3314  0.9205
   33HTM   C16131329  10.782   4.684   9.485 -0.2196  0.4048  0.2445
   33HTM   C16231330  10.892   4.749   9.436 -0.4001  0.4046 -0.1691
   33HTM   C16331331  10.890   4.891   9.459 -0.2915  0.3977 -0.1179
   33HTM   C16431332  10.779   4.935   9.525 -0.0282  0.3936  0.3348
   33HTM    S1731333  10.667   4.799   9.563  0.1041  0.3970  0.7345
   34TAL   C16531334  11.005   4.975   9.408 -0.0085 -0.5440 -0.2567
   34TAL   C16631335  10.971   5.053   9.276  0.3576  0.4772 -0.7798
   34TAL   C16731336  11.095   5.134   9.237  0.9967 -0.1852  0.2083
   34TAL   C16831337  11.102   5.274   9.304 -0.5186  0.0464 -0.2405
   34TAL   C16931338  11.225   5.355   9.258 -0.0138  0.1405  0.4511
   34TAL   C17031339  11.242   5.496   9.308  1.1993  0.8366  0.0411
   35HTM   C17131340  10.738   5.070   9.567  0.2469 -0.0056  0.2482
   35HTM   C17231341  10.693   5.102   9.691  0.3392  0.1717  0.2379
   35HTM   C17331342  10.678   5.243   9.714 -0.0017  0.1888 -0.0784
   35HTM   C17431343  10.712   5.320   9.607 -0.3541  0.0244 -0.3093
   35HTM    S1831344  10.766   5.218   9.467 -0.2821 -0.1658 -0.1438
   36TAL   C17531345  10.631   5.285   9.857  0.0178 -0.6354  0.5425
   36TAL   C17631346  10.483   5.315   9.852 -0.2877  0.1875 -0.1037
   36TAL   C17731347  10.439   5.433   9.938 -0.2494  0.2279 -0.3930
   36TAL   C17831348  10.309   5.496   9.892 -0.0932 -0.4045 -1.0304
   36TAL   C17931349  10.309   5.575   9.762  0.6166 -0.0075  0.3971
   36TAL   C18031350  10.169   5.620   9.741  0.5456  0.0852 -0.7149
   37HTM   C18131351  10.721   5.467   9.604 -0.3570 -0.0278 -0.1224
   37HTM   C18231352  10.640   5.561   9.662 -0.2724 -0.0322  0.0043
   37HTM   C18331353  10.689   5.695   9.647 -0.2071 -0.0460  0.0915
   37HTM   C18431354  10.806   5.704   9.578 -0.2419 -0.0517  0.0314
   37HTM    S1931355  10.865   5.541   9.526 -0.3607 -0.0406 -0.1414
   38TAL   C18531356  10.618   5.815   9.709  0.5734 -0.2707  0.3270
   38TAL   C18631357  10.646   5.825   9.864  0.4142  0.3303 -0.1526
   38TAL   C18731358  10.542   5.893   9.959  0.0138 -0.4950  0.1083
   38TAL   C18831359  10.520   6.043   9.935  0.3618 -0.1458 -0.8126
   38TAL   C18931360  10.636   6.142   9.915 -0.3070 -0.2890 -0.4038
   38TAL   C19031361  10.728   6.177  10.034 -0.1308  0.5302  0.1852
   39HTM   C19131362  10.880   5.818   9.537 -0.3567 -0.2771  0.2332
   39HTM   C19231363  10.851   5.951   9.540 -0.3675 -0.2728 -0.0196
   39HTM   C19331364  10.957   6.035   9.490 -0.3309 -0.3526 -0.0756
   39HTM   C19431365  11.067   5.966   9.448 -0.2920 -0.4174  0.1344
   39HTM    S2031366  11.045   5.788   9.470 -0.2989 -0.3828  0.4216
   40TAL   C19531367  10.933   6.179   9.489  0.2383 -0.4626 -0.4164
   40TAL   C19631368  10.913   6.248   9.628 -0.3203 -0.3315 -0.7975
   40TAL   C19731369  10.871   6.399   9.627 -0.5221  0.3046 -0.3184
   40TAL   C19831370  10.824   6.452   9.764 -0.6195 -0.8575  0.2977
   40TAL   C19931371  10.774   6.604   9.772  0.2488  0.3748  0.0033
   40TAL   C20031372  10.865   6.719   9.721 -0.0737  0.5641  0.0492
   41HTM   C20131373  11.179   6.009   9.365  0.3716 -0.2104  0.0862
   41HTM   C20231374  11.250   5.928   9.282  0.4799  0.0439 -0.0689
   41HTM   C20331375  11.338   5.999   9.193  0.2422  0.3428 -0.0651
   41HTM   C20431376  11.334   6.135   9.208 -0.0475  0.3167  0.0930
   41HTM    S2131377  11.218   6.183   9.338 -0.0425 -0.0911  0.2504
   42TAL   C20531378  11.411   5.924   9.082 -0.2737  0.4176  0.3484
   42TAL   C20631379  11.487   5.801   9.121  0.4427  0.6014 -0.4378
   42TAL   C20731380  11.595   5.809   9.235 -0.0377  0.0234  0.0581
   42TAL   C20831381  11.700   5.920   9.208  0.3070  0.3621  0.1932
   42TAL   C20931382  11.789   5.966   9.322 -0.1159  0.4034 -0.0530
   42TAL   C21031383  11.856   6.097   9.298 -0.0886 -0.5089 -0.5727
   43HTM   C21131384  11.407   6.240   9.144  0.1962 -0.3363 -0.3453
   43HTM   C21231385  11.514   6.306   9.196  0.1835 -0.4327 -0.1952
   43HTM   C21331386  11.568   6.407   9.108  0.1030 -0.1533  0.0723
   43HTM   C21431387  11.502   6.417   8.989  0.0545  0.1557  0.1262
   43HTM    S2231388  11.365   6.300   8.979  0.1071  0.1174 -0.1586
   44TAL   C21531389  11.683   6.500   9.138  0.5358  0.2228 -0.7336
   44TAL   C21631390  11.776   6.460   9.244 -0.2440  0.0904  0.4272
   44TAL   C21731391  11.896   6.551   9.270 -0.1198  1.1719 -0.1733
   44TAL   C21831392  11.867   6.699   9.298 -0.0255 -0.0933  0.1931
   44TAL   C21931393  11.993   6.768   9.351 -0.5257  0.1597  0.0644
   44TAL   C22031394  11.965   6.901   9.419 -0.2285  0.1259  0.5547
   45HTM   C22131395  11.516   6.509   8.877  0.3357  0.1568  0.0353
   45HTM   C22231396  11.519   6.645   8.877  0.6454  0.1483 -0.0544
   45HTM   C22331397  11.519   6.703   8.745  0.5385  0.0684 -0.0887
   45HTM   C22431398  11.515   6.610   8.645  0.1472  0.0160 -0.0253
   45HTM    S2331399  11.511   6.442   8.710 -0.1186  0.0642  0.0838
   46TAL   C22531400  11.504   6.849   8.725 -0.1026 -0.4675 -1.2394
   46TAL   C22631401  11.596   6.951   8.780  0.0052 -0.6450 -0.6274
   46TAL   C22731402  11.746   6.935   8.739  0.6774 -0.1106 -0.1861
   46TAL   C22831403  11.814   7.061   8.778 -0.0755  0.3742 -0.0374
   46TAL   C22931404  11.957   7.045   8.758 -0.1761  0.5634 -0.1316
   46TAL   C23031405  12.047   7.140   8.829 -0.0008  0.1838 -0.4890
   47HTM   C23131406  11.503   6.621   8.500 -0.0859  0.0445  0.0922
   47HTM   C23231407  11.401   6.566   8.428 -0.3126  0.2799  0.2275
   47HTM   C23331408  11.406   6.598   8.287 -0.4262  0.2708  0.2217
   47HTM   C23431409  11.511   6.678   8.253 -0.2861  0.0282  0.0813
   47HTM    S2431410  11.613   6.719   8.396  0.0022 -0.2091 -0.0550
   48TAL   C23531411  11.301   6.547   8.190 -0.1561  0.7781  0.6475
   48TAL   C23631412  11.269   6.400   8.203 -1.1083 -0.8598  0.5078
   48TAL   C23731413  11.176   6.338   8.104 -0.1909 -0.5617  0.6636
   48TAL   C23831414  11.185   6.191   8.126  0.4627  0.2412  0.4465
   48TAL   C23931415  11.109   6.113   8.013  0.5394 -0.1183 -1.1342
   48TAL   C24031416  11.110   5.966   8.028  0.3344  0.8062  0.0847
    1HTM     C131417   5.385   0.010   2.106  0.3919 -0.2068  0.1415
    1HTM     C231418   5.348   0.010   1.975  0.5512 -0.2012  0.0956
    1HTM     C331419   5.265  -0.103   1.938  0.3815 -0.0634  0.0528
    1HTM     C431420   5.240  -0.188   2.041  0.0920  0.0355  0.0659
    1HTM     S131421   5.319  -0.133   2.194  0.0114 -0.0375  0.1339
    2TAL     C531422   5.233  -0.124   1.791 -0.0383 -0.4676  0.5978
    2TAL     C631423   5.111  -0.050   1.734  0.5932  0.3693 -0.2865
    2TAL     C731424   4.975  -0.067   1.798  0.3414 -0.3932  0.1581
    2TAL     C831425   4.917  -0.206   1.775 -0.0614 -0.1142 -0.0594
    2TAL     C931426   4.767  -0.204   1.791  0.2974 -0.0602  0.2997
    2TAL    C1031427   4.695  -0.125   1.688 -0.0514  0.4443 -0.2739
    3HTM    C1131428   5.146  -0.300   2.052  0.1329 -0.0286 -0.1729
    3HTM    C1231429   5.037  -0.296   2.134  0.0148  0.0353 -0.3307
    3HTM    C1331430   4.941  -0.401   2.108  0.1245 -0.0758 -0.2884
    3HTM    C1431431   4.977  -0.484   2.006  0.3259 -0.2245 -0.0981
    3HTM     S231432   5.136  -0.436   1.934  0.3935 -0.2366  0.0434
    4TAL    C1531433   4.820  -0.431   2.189 -0.2332  0.2571  0.2706
    4TAL    C1631434   4.782  -0.339   2.312 -0.7328 -0.0069  0.0432
    4TAL    C1731435   4.641  -0.331   2.355  0.2078 -0.1970 -0.5102
    4TAL    C1831436   4.538  -0.275   2.253 -0.3409 -0.3098  0.0903
    4TAL    C1931437   4.581  -0.180   2.140 -0.3052  0.4386  0.8163
    4TAL    C2031438   4.487  -0.171   2.024  0.5753  0.1280  0.0841
    5HTM    C2131439   4.920  -0.597   1.941 -0.0046 -0.0736  0.2153
    5HTM    C2231440   4.939  -0.731   1.958  0.0994 -0.0629  0.1876
    5HTM    C2331441   4.875  -0.811   1.857  0.1030 -0.0949  0.2102
    5HTM    C2431442   4.808  -0.738   1.763  0.0021 -0.1299  0.2552
    5HTM     S331443   4.820  -0.561   1.796 -0.1068 -0.1257  0.2726
    6TAL    C2531444   4.899  -0.960   1.845 -0.2841  0.3118 -0.6655
    6TAL    C2631445   4.848  -1.043   1.965 -0.3210 -0.2458  0.3418
    6TAL    C2731446   4.835  -1.195   1.943 -0.6192  0.1880 -0.2487
    6TAL    C2831447   4.799  -1.265   2.074 -0.2401 -0.4138 -0.3629
    6TAL    C2931448   4.780  -1.415   2.061 -0.3598 -0.0780  0.2940
    6TAL    C3031449   4.715  -1.485   2.176 -0.1099 -0.5303  0.3331
    7HTM    C3131450   4.745  -0.772   1.642 -0.0803  0.5434  0.0194
    7HTM    C3231451   4.614  -0.758   1.610  0.0272  1.0810 -0.2001
    7HTM    C3331452   4.586  -0.773   1.469  0.1647  0.9451 -0.2123
    7HTM    C3431453   4.697  -0.799   1.394  0.1620  0.3039 -0.0022
    7HTM     S431454   4.846  -0.806   1.496 -0.0159 -0.1815  0.2294
    8TAL    C3531455   4.445  -0.771   1.417 -0.3939  0.0648 -0.1881
    8TAL    C3631456   4.383  -0.629   1.401  0.4870 -0.1086  0.0734
    8TAL    C3731457   4.255  -0.640   1.314 -0.1261 -0.6381  0.2185
    8TAL    C3831458   4.195  -0.508   1.273  0.0463  0.4139 -0.5749
    8TAL    C3931459   4.269  -0.428   1.165  1.1641 -0.0861 -0.0003
    8TAL    C4031460   4.209  -0.289   1.151 -0.5456  0.0556 -0.0819
    9HTM    C4131461   4.710  -0.805   1.248  0.5326 -0.0922  0.3687
    9HTM    C4231462   4.655  -0.717   1.159  0.7098  0.3171  0.6591
    9HTM    C4331463   4.692  -0.742   1.023  0.3946  0.4926  0.5398
    9HTM    C4431464   4.776  -0.849   1.007 -0.0229  0.2173  0.1584
    9HTM     S531465   4.814  -0.926   1.165 -0.0504 -0.2889 -0.0815
   10TAL    C4531466   4.652  -0.648   0.905 -0.0566 -0.3551 -0.1111
   10TAL    C4631467   4.547  -0.540   0.938 -0.0659  0.1550 -0.7855
   10TAL    C4731468   4.523  -0.453   0.817  0.0709 -0.0665  0.3681
   10TAL    C4831469   4.514  -0.304   0.832  0.4346  0.0444 -0.1252
   10TAL    C4931470   4.628  -0.242   0.904 -0.0943 -0.0895  0.0558
   10TAL    C5031471   4.611  -0.091   0.920 -0.2979 -1.1392 -0.5249
   11HTM    C5131472   4.845  -0.900   0.889  0.0597  0.0818  0.0428
   11HTM    C5231473   4.806  -0.994   0.798 -0.0434  0.4926 -0.3427
   11HTM    C5331474   4.904  -1.021   0.697 -0.1342  0.9074 -0.5448
   11HTM    C5431475   5.019  -0.948   0.710 -0.1003  0.8130 -0.3133
   11HTM     S631476   5.010  -0.838   0.853  0.0504  0.1881  0.1817
   12TAL    C5531477   4.876  -1.121   0.579 -0.4962  0.5566  0.4928
   12TAL    C5631478   4.741  -1.191   0.558 -0.1471 -0.0203  0.7223
   12TAL    C5731479   4.690  -1.210   0.415  0.1873 -0.0888 -0.4856
   12TAL    C5831480   4.769  -1.314   0.326  0.3683  0.0824 -0.3954
   12TAL    C5931481   4.714  -1.351   0.190 -0.3343 -0.2826  0.3569
   12TAL    C6031482   4.777  -1.264   0.085  0.1997  0.0956  0.4599
   13HTM    C6131483   5.144  -0.951   0.641  0.0386 -0.6856  0.3071
   13HTM    C6231484   5.232  -0.847   0.643 -0.1571 -0.5221  0.5742
   13HTM    C6331485   5.353  -0.872   0.569 -0.1004 -0.1111  0.5221
   13HTM    C6431486   5.357  -0.996   0.511  0.1388  0.0390  0.2153
   13HTM     S731487   5.207  -1.090   0.545  0.3118 -0.3302 -0.0337
   14TAL    C6531488   5.459  -0.772   0.558  0.0253  0.4078  0.3419
   14TAL    C6631489   5.562  -0.752   0.662  0.2505  0.1327  0.6673
   14TAL    C6731490   5.515  -0.705   0.797 -0.3388  0.2030 -0.1236
   14TAL    C6831491   5.634  -0.685   0.887  0.3844 -0.5105 -0.1504
   14TAL    C6931492   5.597  -0.601   1.004  0.1641 -0.4471  0.2458
   14TAL    C7031493   5.721  -0.542   1.074 -0.1474 -0.0502  0.2468
   15HTM    C7131494   5.458  -1.062   0.432 -0.1173 -0.3645 -0.3169
   15HTM    C7231495   5.453  -1.195   0.400  0.1853 -0.3328 -0.4988
   15HTM    C7331496   5.578  -1.246   0.349  0.4299 -0.0811 -0.1657
   15HTM    C7431497   5.677  -1.153   0.342  0.3134  0.0790  0.2702
   15HTM     S831498   5.621  -0.992   0.400 -0.1170 -0.0768  0.2939
   16TAL    C7531499   5.595  -1.390   0.304 -0.2163  0.2521  0.4639
   16TAL    C7631500   5.479  -1.472   0.226  0.3014 -0.7685  0.8338
   16TAL    C7731501   5.386  -1.528   0.325  0.2801 -0.4131  0.2971
   16TAL    C7831502   5.256  -1.574   0.263 -0.2663  0.1079  0.6414
   16TAL    C7931503   5.163  -1.667   0.343 -0.1768 -0.7004  0.5642
   16TAL    C8031504   5.026  -1.672   0.291  0.0823 -0.0621 -0.3015
   17HTM    C8131505   5.817  -1.166   0.312  0.0901  0.2511 -0.0276
   17HTM    C8231506   5.891  -1.095   0.222  0.1416 -0.0947 -0.2581
   17HTM    C8331507   6.031  -1.128   0.224  0.0463 -0.5195 -0.4720
   17HTM    C8431508   6.064  -1.224   0.315 -0.0778 -0.4979 -0.4046
   17HTM     S931509   5.919  -1.280   0.407 -0.0841  0.0654 -0.0632
   18TAL    C8531510   6.117  -1.061   0.119  0.0881 -0.1259 -0.1199
   18TAL    C8631511   6.221  -0.956   0.160  0.2879  0.2947  0.3026
   18TAL    C8731512   6.187  -0.831   0.241 -0.4516  0.2044  0.0118
   18TAL    C8831513   6.064  -0.758   0.203  0.2640  0.4355  0.0387
   18TAL    C8931514   6.050  -0.637   0.294 -0.7212  0.1679  0.6779
   18TAL    C9031515   5.933  -0.532   0.278 -0.3146 -0.0614 -0.5693
   19HTM    C9131516   6.199  -1.270   0.357  0.1211 -0.2515  0.3533
   19HTM    C9231517   6.272  -1.217   0.460  0.0904 -0.4342  0.4680
   19HTM    C9331518   6.406  -1.270   0.468  0.0994 -0.4232  0.3933
   19HTM    C9431519   6.435  -1.362   0.372  0.1364 -0.2318  0.2216
   19HTM    S1031520   6.295  -1.390   0.262  0.1632 -0.0497  0.1404
   20TAL    C9531521   6.488  -1.244   0.592  0.4293 -0.5622  0.5648
   20TAL    C9631522   6.428  -1.280   0.728 -0.2134  0.2195 -0.1298
   20TAL    C9731523   6.497  -1.252   0.864  0.0179  0.0077 -0.3223
   20TAL    C9831524   6.649  -1.279   0.873  0.4614  0.1270  0.3750
   20TAL    C9931525   6.684  -1.426   0.858  0.3749 -0.3335 -0.7672
   20TAL   C10031526   6.835  -1.459   0.858  0.0674  0.7686  0.6601
   21HTM   C10131527   6.558  -1.446   0.335 -0.1036  0.0756  0.0391
   21HTM   C10231528   6.594  -1.500   0.215 -0.0529  0.2277 -0.0151
   21HTM   C10331529   6.729  -1.549   0.212  0.0184  0.4272 -0.0887
   21HTM   C10431530   6.796  -1.532   0.329  0.0217  0.4265 -0.0906
   21HTM    S1131531   6.693  -1.452   0.454 -0.0655  0.1728  0.0011
   22TAL   C10531532   6.779  -1.611   0.074  0.8282 -0.2164 -0.7716
   22TAL   C10631533   6.722  -1.556  -0.059 -0.0466 -0.5304  0.5569
   22TAL   C10731534   6.759  -1.409  -0.084  0.0538  0.2880  0.2687
   22TAL   C10831535   6.699  -1.318  -0.188  0.3711 -0.0250 -0.0381
   22TAL   C10931536   6.549  -1.295  -0.187 -0.8603 -0.0312 -0.1728
   22TAL   C11031537   6.483  -1.207  -0.079 -0.2012 -0.5760  0.7701
   23HTM   C11131538   6.940  -1.551   0.358  0.0650 -0.4198 -0.3597
   23HTM   C11231539   7.031  -1.453   0.385 -0.2842 -0.1059 -0.3143
   23HTM   C11331540   7.165  -1.502   0.404 -0.1926  0.3092  0.1474
   23HTM   C11431541   7.177  -1.637   0.390  0.2263  0.3117  0.4539
   23HTM    S1231542   7.018  -1.714   0.353  0.5402 -0.2141  0.1812
   24TAL   C11531543   7.274  -1.405   0.420  0.4031  0.4023  0.1994
   24TAL   C11631544   7.365  -1.418   0.543  0.3555 -0.2575 -0.4854
   24TAL   C11731545   7.286  -1.396   0.669  0.3162  0.1356 -0.3136
   24TAL   C11831546   7.379  -1.384   0.793  0.3734  0.1293  0.3110
   24TAL   C11931547   7.324  -1.451   0.923 -0.9539  0.3804  0.6690
   24TAL   C12031548   7.177  -1.447   0.960 -0.3794 -0.5328 -0.7927
   25HTM   C12131549   7.285  -1.732   0.388 -0.1442 -0.2865 -0.1517
   25HTM   C12231550   7.294  -1.853   0.450 -0.0505 -0.4413 -0.4645
   25HTM   C12331551   7.418  -1.922   0.424  0.0606 -0.2170 -0.5347
   25HTM   C12431552   7.503  -1.854   0.342  0.0517  0.1094 -0.2755
   25HTM    S1331553   7.432  -1.696   0.291 -0.0988  0.1583  0.0802
   26TAL   C12531554   7.446  -2.055   0.492 -0.1645  0.6774 -0.0931
   26TAL   C12631555   7.334  -2.159   0.508  0.1161 -0.1339 -0.5088
   26TAL   C12731556   7.257  -2.211   0.382 -0.6023 -1.4920  0.0258
   26TAL   C12831557   7.127  -2.293   0.389  0.6357  0.4379  0.0779
   26TAL   C12931558   7.013  -2.235   0.467 -0.3356 -0.2917  0.3283
   26TAL   C13031559   6.881  -2.304   0.465  0.7291 -0.0517 -0.1120
   27HTM   C13131560   7.624  -1.902   0.282  0.0309  0.0102 -0.2577
   27HTM   C13231561   7.651  -1.950   0.157  0.0410  0.2508 -0.3489
   27HTM   C13331562   7.790  -1.977   0.134  0.0501  0.3517 -0.4099
   27HTM   C13431563   7.870  -1.949   0.241  0.0476  0.1884 -0.3652
   27HTM    S1431564   7.774  -1.887   0.381  0.0326 -0.1083 -0.2417
   28TAL   C13531565   7.835  -2.039   0.003  0.5689  0.1058 -0.1810
   28TAL   C13631566   7.745  -2.027  -0.119 -0.3711 -0.1034  0.4541
   28TAL   C13731567   7.714  -1.895  -0.182  0.4212 -0.2092  0.5617
   28TAL   C13831568   7.830  -1.800  -0.225  0.2420 -0.6239 -0.1359
   28TAL   C13931569   7.802  -1.665  -0.290 -0.1422  0.1623  0.1923
   28TAL   C14031570   7.939  -1.624  -0.335 -0.1385 -0.4646  0.0394
   29HTM   C14131571   8.013  -1.951   0.266  0.1737 -0.1145 -0.2687
   29HTM   C14231572   8.097  -1.845   0.277  0.1240 -0.0982 -0.0517
   29HTM   C14331573   8.234  -1.882   0.303  0.0782 -0.0749  0.2226
   29HTM   C14431574   8.253  -2.017   0.312  0.0929 -0.0730  0.2147
   29HTM    S1531575   8.100  -2.108   0.287  0.1660 -0.1011 -0.1425
   30TAL   C14531576   8.343  -1.780   0.309 -0.1480 -0.5315  0.2603
   30TAL   C14631577   8.309  -1.628   0.302 -0.2332  0.1228 -0.9194
   30TAL   C14731578   8.441  -1.558   0.328  0.1026 -0.6732  0.3185
   30TAL   C14831579   8.450  -1.401   0.321 -0.1959  0.8324  0.7323
   30TAL   C14931580   8.382  -1.325   0.208  0.0881  0.4758 -0.2151
   30TAL   C15031581   8.418  -1.176   0.210 -0.3338 -0.7138 -0.2047
   31HTM   C15131582   8.372  -2.092   0.360  0.3711  0.1865  0.1644
   31HTM   C15231583   8.496  -2.041   0.385  0.2985  0.2210  0.4602
   31HTM   C15331584   8.593  -2.140   0.424  0.2732  0.2253  0.5353
   31HTM   C15431585   8.543  -2.267   0.429  0.3261  0.1946  0.2967
   31HTM    S1631586   8.368  -2.271   0.384  0.4130  0.1568 -0.0439
   32TAL   C15531587   8.736  -2.106   0.440 -0.1288  0.3321 -0.2389
   32TAL   C15631588   8.796  -1.968   0.441 -0.4731 -0.1955  0.2022
   32TAL   C15731589   8.731  -1.850   0.513  0.2264  0.1933  0.1861
   32TAL   C15831590   8.797  -1.710   0.525  0.2411  1.0052  0.4428
   32TAL   C15931591   8.941  -1.711   0.583  0.2745  0.1746 -0.0238
   32TAL   C16031592   8.989  -1.568   0.568 -0.1729  0.0412 -0.1705
   33HTM   C16131593   8.613  -2.396   0.459  0.1786  0.1704 -0.7167
   33HTM   C16231594   8.724  -2.416   0.535  0.0591  0.2320 -0.5260
   33HTM   C16331595   8.762  -2.555   0.546 -0.1912  0.2036 -0.0222
   33HTM   C16431596   8.679  -2.640   0.479 -0.2644  0.1206  0.1712
   33HTM    S1731597   8.546  -2.551   0.395 -0.0194  0.0713 -0.2714
   34TAL   C16531598   8.890  -2.594   0.620 -0.0420 -0.3549 -0.3474
   34TAL   C16631599   9.014  -2.550   0.536 -0.5537  0.7886  0.3176
   34TAL   C16731600   9.140  -2.526   0.617  0.4033 -0.0480 -0.0822
   34TAL   C16831601   9.252  -2.488   0.521  0.2616 -0.3743 -0.4074
   34TAL   C16931602   9.380  -2.479   0.606 -0.7114  0.2450  0.0288
   34TAL   C17031603   9.493  -2.460   0.503 -0.1152 -0.1722 -0.0862
   35HTM   C17131604   8.688  -2.784   0.463  0.0645 -0.0862 -0.5397
   35HTM   C17231605   8.590  -2.876   0.487 -0.0625 -0.1028 -1.1212
   35HTM   C17331606   8.635  -3.012   0.476  0.0577 -0.0951 -0.7240
   35HTM   C17431607   8.767  -3.025   0.444  0.2770 -0.0729  0.1602
   35HTM    S1831608   8.846  -2.863   0.425  0.3489 -0.0598  0.5631
   36TAL   C17531609   8.540  -3.129   0.496  0.1114  0.0996 -1.0138
   36TAL   C17631610   8.507  -3.157   0.640  0.0154 -0.0024 -0.2179
   36TAL   C17731611   8.424  -3.281   0.650 -0.6679 -0.0100 -0.5878
   36TAL   C17831612   8.489  -3.419   0.629 -0.4497  0.0763 -0.4272
   36TAL   C17931613   8.419  -3.542   0.684  0.6458 -0.4271  0.5506
   36TAL   C18031614   8.273  -3.569   0.643 -0.0306 -0.3285 -0.5542
   37HTM   C18131615   8.854  -3.143   0.433  0.2449 -0.2013  0.3034
   37HTM   C18231616   8.990  -3.137   0.434  0.2465 -0.2503  0.6972
   37HTM   C18331617   9.054  -3.265   0.418  0.2441 -0.2425  0.6223
   37HTM   C18431618   8.966  -3.368   0.406  0.2407 -0.1871  0.1713
   37HTM    S1931619   8.795  -3.312   0.413  0.2401 -0.1404 -0.1965
   38TAL   C18531620   9.206  -3.273   0.409 -1.3455 -0.1546 -0.5595
   38TAL   C18631621   9.291  -3.255   0.540  0.0025  0.0448  0.0757
   38TAL   C18731622   9.279  -3.354   0.658 -0.2042  0.4135  0.2910
   38TAL   C18831623   9.326  -3.495   0.619 -0.0682  0.5344  0.2929
   38TAL   C18931624   9.288  -3.603   0.725  0.9338  0.2272  0.2732
   38TAL   C19031625   9.336  -3.745   0.689  0.1381 -0.4175  0.2558
   39HTM   C19131626   8.993  -3.509   0.389 -0.0760 -0.3378  0.2921
   39HTM   C19231627   8.907  -3.611   0.417  0.0577 -0.4349  0.3537
   39HTM   C19331628   8.955  -3.741   0.377  0.0978 -0.3598  0.1569
   39HTM   C19431629   9.079  -3.738   0.319 -0.0050 -0.2054 -0.0548
   39HTM    S2031630   9.144  -3.570   0.310 -0.1622 -0.1430 -0.0217
   40TAL   C19531631   8.873  -3.866   0.394 -0.1979 -0.1300  0.0610
   40TAL   C19631632   8.944  -3.984   0.459 -0.0382 -0.3508 -0.9749
   40TAL   C19731633   8.909  -4.120   0.404 -0.3091  0.6889 -0.1341
   40TAL   C19831634   9.016  -4.220   0.455 -0.2741  0.6365  0.7535
   40TAL   C19931635   8.960  -4.365   0.466  0.0878 -0.7198  0.5368
   40TAL   C20031636   9.063  -4.468   0.497  0.4541  0.0820 -0.4090
   41HTM   C20131637   9.165  -3.841   0.266 -0.1887  0.0320  0.0190
   41HTM   C20231638   9.297  -3.858   0.298 -0.0599  0.1707 -0.4235
   41HTM   C20331639   9.355  -3.978   0.243 -0.1070  0.2534 -0.6543
   41HTM   C20431640   9.268  -4.052   0.169 -0.2716  0.1778 -0.3878
   41HTM    S2131641   9.104  -3.976   0.162 -0.3808 -0.0052  0.1797
   42TAL   C20531642   9.501  -4.011   0.270  0.0070 -0.7257  0.1923
   42TAL   C20631643   9.612  -3.923   0.206  0.4145  0.6778  0.0351
   42TAL   C20731644   9.588  -3.860   0.073  0.6172 -0.3413  0.4930
   42TAL   C20831645   9.542  -3.943  -0.050 -0.7156 -0.2631  0.0655
   42TAL   C20931646   9.490  -3.852  -0.167  0.3712  0.7260 -0.1336
   42TAL   C21031647   9.374  -3.929  -0.236  0.0139  0.0755 -0.3011
   43HTM   C21131648   9.283  -4.192   0.124  0.2078 -0.0811  0.5340
   43HTM   C21231649   9.186  -4.286   0.144  0.2956 -0.0501  1.1118
   43HTM   C21331650   9.230  -4.420   0.119  0.0851 -0.0572  0.7692
   43HTM   C21431651   9.360  -4.430   0.080 -0.1631 -0.0933 -0.0698
   43HTM    S2231652   9.438  -4.267   0.071 -0.1503 -0.1213 -0.4955
   44TAL   C21531653   9.128  -4.535   0.130 -0.5399  0.5438  0.1226
   44TAL   C21631654   9.130  -4.653   0.036 -0.5982 -0.2175 -0.1364
   44TAL   C21731655   9.006  -4.739   0.048 -0.2066  0.6960  0.1358
   44TAL   C21831656   9.000  -4.867  -0.029 -0.1274  0.4880  0.5449
   44TAL   C21931657   8.855  -4.913  -0.022 -0.5556  0.5754  0.7811
   44TAL   C22031658   8.811  -5.037  -0.107  0.1217  0.4318  0.1198
   45HTM   C22131659   9.436  -4.545   0.033  0.0377 -0.1481 -0.0505
   45HTM   C22231660   9.472  -4.572  -0.096 -0.0854 -0.2363 -0.0663
   45HTM   C22331661   9.511  -4.708  -0.118 -0.1156 -0.2534 -0.0114
   45HTM   C22431662   9.505  -4.786  -0.005 -0.0156 -0.1780  0.0461
   45HTM    S2331663   9.448  -4.691   0.137  0.1256 -0.0786  0.0359
   46TAL   C22531664   9.542  -4.762  -0.252 -0.4419  0.3676  0.8204
   46TAL   C22631665   9.682  -4.735  -0.308 -0.5266 -1.0059  0.5442
   46TAL   C22731666   9.800  -4.799  -0.255  0.3109  0.4527 -0.3719
   46TAL   C22831667   9.805  -4.953  -0.259 -0.1020 -0.0112 -0.9533
   46TAL   C22931668   9.918  -4.997  -0.174  0.2711 -0.6980  0.1801
   46TAL   C23031669   9.901  -5.145  -0.158  1.0168  0.0105 -0.8370
   47HTM   C23131670   9.528  -4.930   0.012 -0.1287 -0.0275  0.2552
   47HTM   C23231671   9.462  -5.039  -0.034 -0.0445 -0.0076  0.0868
   47HTM   C23331672   9.519  -5.164   0.009  0.2760 -0.0380 -0.4136
   47HTM   C23431673   9.629  -5.150   0.089  0.4363 -0.0810 -0.6269
   47HTM    S2431674   9.669  -4.976   0.115  0.1929 -0.0861 -0.2090
   48TAL   C23531675   9.475  -5.300  -0.028 -0.0342 -0.1592 -0.0806
   48TAL   C23631676   9.482  -5.322  -0.179  0.0032  0.5383  0.1030
   48TAL   C23731677   9.512  -5.464  -0.224 -0.0653  0.2024 -0.1720
   48TAL   C23831678   9.517  -5.509  -0.372  0.0655  0.4473 -0.0790
   48TAL   C23931679   9.397  -5.474  -0.459  1.2308  0.5593 -0.4604
   48TAL   C24031680   9.385  -5.520  -0.598 -0.2437  0.0385 -0.1532
    1HTM     C131681   7.404   0.519   8.627 -0.3318 -0.0908 -0.3310
    1HTM     C231682   7.410   0.650   8.589 -0.0908 -0.0066 -0.0129
    1HTM     C331683   7.295   0.727   8.629 -0.0188  0.0714  0.0434
    1HTM     C431684   7.202   0.655   8.698 -0.2047  0.0466 -0.2317
    1HTM     S131685   7.252   0.483   8.718 -0.4876 -0.0781 -0.5863
    2TAL     C531686   7.273   0.874   8.594 -0.0360 -0.0187 -0.2770
    2TAL     C631687   7.379   0.942   8.510 -0.8628 -0.4034 -0.0617
    2TAL     C731688   7.337   1.065   8.434  0.2918  1.0026  0.1189
    2TAL     C831689   7.443   1.153   8.371  0.4991 -0.2137 -0.0612
    2TAL     C931690   7.480   1.105   8.229 -0.5612 -0.5964  0.4600
    2TAL    C1031691   7.562   1.211   8.158  0.1904 -0.4473 -0.0803
    3HTM    C1131692   7.074   0.686   8.753 -0.3126  0.0721 -0.4387
    3HTM    C1231693   7.027   0.798   8.816 -0.3955 -0.1103 -0.1726
    3HTM    C1331694   6.892   0.785   8.865 -0.1876 -0.5192  0.2937
    3HTM    C1431695   6.836   0.663   8.840  0.0538 -0.6485  0.3843
    3HTM     S231696   6.951   0.555   8.752  0.0374 -0.2610 -0.1175
    4TAL    C1531697   6.827   0.889   8.949 -0.3108 -0.0941  0.0096
    4TAL    C1631698   6.864   1.037   8.916  0.1564  0.2102 -0.5002
    4TAL    C1731699   6.833   1.099   8.773 -0.4896 -0.3089 -0.5595
    4TAL    C1831700   6.906   1.230   8.758 -0.0554  0.0618  1.0514
    4TAL    C1931701   6.910   1.287   8.616  0.3284  0.1127  0.1830
    4TAL    C2031702   6.990   1.205   8.516  0.3855  0.0180  0.2070
    5HTM    C2131703   6.698   0.622   8.848  0.2295 -0.0004 -0.0524
    5HTM    C2231704   6.664   0.492   8.870  0.2706  0.0388  0.2451
    5HTM    C2331705   6.523   0.472   8.892  0.3140  0.0803  0.5727
    5HTM    C2431706   6.449   0.587   8.886  0.3062  0.0727  0.5253
    5HTM     S331707   6.554   0.731   8.853  0.2423  0.0121  0.0595
    6TAL    C2531708   6.479   0.334   8.943 -0.0660 -0.5663 -0.1185
    6TAL    C2631709   6.351   0.274   8.886 -0.7417  0.9891 -0.3741
    6TAL    C2731710   6.347   0.241   8.736 -0.8166  0.4761 -0.4554
    6TAL    C2831711   6.305   0.100   8.685  0.4566 -0.3605 -0.1756
    6TAL    C2931712   6.178   0.057   8.743 -0.1534 -0.1504  0.0267
    6TAL    C3031713   6.140  -0.081   8.691 -0.5642  0.2855 -0.1309
    7HTM    C3131714   6.303   0.621   8.904 -0.2457  0.0423 -0.1494
    7HTM    C3231715   6.191   0.555   8.863 -0.4044  0.1159  0.1621
    7HTM    C3331716   6.069   0.615   8.909 -0.2463  0.3526  0.2785
    7HTM    C3431717   6.087   0.726   8.986  0.0329  0.4595  0.0561
    7HTM     S431718   6.262   0.765   9.005  0.1186  0.2680 -0.3208
    8TAL    C3531719   5.934   0.554   8.868  0.2347  0.6320 -0.3022
    8TAL    C3631720   5.918   0.405   8.840  0.7229 -0.0687 -0.2713
    8TAL    C3731721   5.795   0.356   8.755 -0.0917  0.0311  0.4966
    8TAL    C3831722   5.796   0.417   8.611 -0.6133 -0.0712  0.4335
    8TAL    C3931723   5.918   0.372   8.533 -0.1099  0.2406  0.2922
    8TAL    C4031724   5.927   0.432   8.396  0.5798  0.3042  0.2967
    9HTM    C4131725   5.992   0.822   9.038  0.1124 -0.2569 -0.4419
    9HTM    C4231726   6.032   0.934   9.103  0.2854 -0.1507 -0.7272
    9HTM    C4331727   5.923   1.015   9.151  0.4084 -0.1531 -0.4363
    9HTM    C4431728   5.800   0.965   9.121  0.3291 -0.2610  0.0707
    9HTM     S531729   5.812   0.809   9.030  0.0907 -0.3689  0.2213
   10TAL    C4531730   5.960   1.149   9.215  0.0464  0.9096 -0.0314
   10TAL    C4631731   6.101   1.180   9.273 -0.6479 -0.5812 -0.3602
   10TAL    C4731732   6.120   1.314   9.349 -0.4151 -0.1114  0.4530
   10TAL    C4831733   6.273   1.345   9.353 -0.0182 -0.1715 -0.5492
   10TAL    C4931734   6.302   1.483   9.422  0.3250 -0.3286  0.1982
   10TAL    C5031735   6.444   1.529   9.393 -0.0732 -0.3996  0.2632
   11HTM    C5131736   5.663   1.016   9.128 -0.3063 -0.5343  0.1667
   11HTM    C5231737   5.637   1.141   9.176  0.0365 -0.3869 -0.0263
   11HTM    C5331738   5.502   1.186   9.152  0.2146  0.0240 -0.2654
   11HTM    C5431739   5.426   1.095   9.085  0.0076  0.1898 -0.2546
   11HTM     S631740   5.519   0.945   9.047 -0.4317 -0.1628  0.0608
   12TAL    C5531741   5.458   1.324   9.200  0.5894 -0.5250  0.1024
   12TAL    C5631742   5.563   1.416   9.266 -0.5829  0.3213  0.4055
   12TAL    C5731743   5.524   1.556   9.318  0.1526 -0.3182  0.2056
   12TAL    C5831744   5.494   1.659   9.206 -0.0534  0.6534  0.4304
   12TAL    C5931745   5.481   1.797   9.257  0.4349 -0.0637 -0.4765
   12TAL    C6031746   5.446   1.896   9.151 -1.0740 -0.0659 -0.2083
   13HTM    C6131747   5.292   1.113   9.025 -0.0720  0.0820  0.1410
   13HTM    C6231748   5.253   1.061   8.905 -0.1099 -0.4297  0.3724
   13HTM    C6331749   5.121   1.102   8.864 -0.2315 -0.8232  0.3691
   13HTM    C6431750   5.059   1.185   8.953 -0.2857 -0.6117  0.1353
   13HTM     S731751   5.164   1.218   9.096 -0.1868  0.1065 -0.1014
   14TAL    C6531752   5.072   1.055   8.728  0.6620  0.2416 -0.1865
   14TAL    C6631753   5.152   1.120   8.615 -0.0576  0.0499  0.4624
   14TAL    C6731754   5.149   1.261   8.584  0.4113  0.0283  0.6541
   14TAL    C6831755   5.017   1.322   8.538  0.7387  0.1978 -0.0237
   14TAL    C6931756   5.039   1.472   8.530 -0.0025  0.3805 -0.2162
   14TAL    C7031757   4.901   1.534   8.546 -0.1976 -0.1868 -0.6963
   15HTM    C7131758   4.936   1.266   8.935  0.3424  0.0517 -0.1879
   15HTM    C7231759   4.904   1.379   9.006  0.2971 -0.0663 -0.0205
   15HTM    C7331760   4.781   1.440   8.964  0.1645 -0.1736  0.2127
   15HTM    C7431761   4.719   1.375   8.862  0.1080 -0.1375  0.2241
   15HTM     S831762   4.812   1.230   8.809  0.2193  0.0362 -0.0614
   16TAL    C7531763   4.730   1.569   9.021  0.6004  0.3691  0.0404
   16TAL    C7631764   4.812   1.664   9.105  0.3359 -0.7478  0.2466
   16TAL    C7731765   4.739   1.797   9.130 -0.3803 -0.2714 -0.2336
   16TAL    C7831766   4.828   1.909   9.179  0.2452  0.0049 -0.1911
   16TAL    C7931767   4.940   1.961   9.089 -0.6952  0.0553  0.2089
   16TAL    C8031768   4.997   2.087   9.133 -0.3705 -0.2631  0.7442
   17HTM    C8131769   4.597   1.409   8.784 -0.5435 -0.1607 -0.1985
   17HTM    C8231770   4.505   1.318   8.740 -0.7935 -0.0314  0.0534
   17HTM    C8331771   4.387   1.377   8.683 -0.8128  0.1356  0.2680
   17HTM    C8431772   4.388   1.514   8.684 -0.5774  0.1336  0.1800
   17HTM     S931773   4.541   1.578   8.756 -0.3117 -0.0808 -0.1831
   18TAL    C8531774   4.273   1.293   8.631  0.3528 -0.2159 -1.0228
   18TAL    C8631775   4.159   1.304   8.741 -0.0535 -0.2410 -0.4519
   18TAL    C8731776   4.028   1.237   8.717 -0.8545  0.3152  0.4749
   18TAL    C8831777   3.955   1.279   8.586  0.1366  0.1482  0.0867
   18TAL    C8931778   3.815   1.229   8.574 -0.2122  0.0586  0.0504
   18TAL    C9031779   3.730   1.284   8.462  1.1288  0.0302 -0.7450
   19HTM    C9131780   4.281   1.605   8.652 -0.3684  0.1352 -0.1403
   19HTM    C9231781   4.175   1.600   8.566 -0.4385  0.2291 -0.0606
   19HTM    C9331782   4.086   1.713   8.576 -0.3643  0.2773  0.0505
   19HTM    C9431783   4.124   1.804   8.670 -0.2379  0.2199  0.0552
   19HTM    S1031784   4.276   1.754   8.754 -0.2022  0.0999 -0.0812
   20TAL    C9531785   3.957   1.724   8.491 -0.6162 -0.6192  0.1317
   20TAL    C9631786   3.827   1.651   8.541 -0.5146 -0.4589 -0.6316
   20TAL    C9731787   3.772   1.696   8.672  0.1522  0.3871 -0.4068
   20TAL    C9831788   3.708   1.834   8.681 -0.1645  0.3016  0.1403
   20TAL    C9931789   3.642   1.850   8.821 -0.5165 -0.3748  0.0212
   20TAL   C10031790   3.579   1.982   8.847  0.3340  0.4455 -0.8539
   21HTM   C10131791   4.067   1.933   8.706 -0.4705 -0.1761  0.0806
   21HTM   C10231792   4.010   2.031   8.630 -0.8516 -0.4013  0.0758
   21HTM   C10331793   3.963   2.144   8.707 -0.9881 -0.4296  0.0353
   21HTM   C10431794   3.985   2.132   8.841 -0.7110 -0.2261  0.0096
   21HTM    S1131795   4.067   1.976   8.881 -0.2527  0.0189  0.0339
   22TAL   C10531796   3.880   2.254   8.636  0.2727  0.2588 -0.3624
   22TAL   C10631797   3.742   2.270   8.685 -0.2526  0.2431 -0.0126
   22TAL   C10731798   3.668   2.394   8.628  0.4776  0.0909 -0.0338
   22TAL   C10831799   3.531   2.427   8.673  0.4315  0.1784  0.2711
   22TAL   C10931800   3.413   2.323   8.652 -0.0861 -0.1735  0.4718
   22TAL   C11031801   3.274   2.389   8.662 -1.3594  0.4005 -0.6025
   23HTM   C11131802   3.961   2.217   8.951  0.0787  0.1210 -0.1106
   23HTM   C11231803   3.901   2.176   9.066  0.2702  0.1347 -0.0052
   23HTM   C11331804   3.836   2.281   9.139  0.3381  0.1328  0.0572
   23HTM   C11431805   3.847   2.404   9.080  0.1984  0.1177 -0.0006
   23HTM    S1231806   3.941   2.395   8.926 -0.0318  0.1045 -0.1398
   24TAL   C11531807   3.752   2.252   9.259 -0.6058  0.2140 -0.2893
   24TAL   C11631808   3.737   2.111   9.324  0.5353 -0.2125  0.2302
   24TAL   C11731809   3.661   2.014   9.231 -0.0792  0.2834 -0.7532
   24TAL   C11831810   3.637   1.871   9.284 -0.0815 -0.0246  0.6350
   24TAL   C11931811   3.538   1.801   9.181  0.0025  0.1775 -0.1573
   24TAL   C12031812   3.500   1.664   9.235  0.7735 -0.1453  0.7044
   25HTM   C12131813   3.759   2.519   9.102  0.2298  0.4212 -0.1887
   25HTM   C12231814   3.708   2.595   9.000  0.1159  0.4255 -0.1294
   25HTM   C12331815   3.615   2.696   9.043  0.0098  0.2909 -0.0433
   25HTM   C12431816   3.594   2.697   9.178  0.0429  0.1840 -0.0370
   25HTM    S1331817   3.692   2.570   9.261  0.2119  0.2453 -0.1401
   26TAL   C12531818   3.562   2.788   8.932  0.1075 -0.0496  0.8165
   26TAL   C12631819   3.442   2.735   8.848 -0.2398 -0.5654 -0.3356
   26TAL   C12731820   3.304   2.702   8.904 -1.0086  0.7627  0.2057
   26TAL   C12831821   3.250   2.817   8.985  0.6561  0.1230 -0.1009
   26TAL   C12931822   3.115   2.781   9.040  0.7935 -0.1222 -0.0459
   26TAL   C13031823   3.065   2.892   9.136 -0.1151  1.1172  0.0535
   27HTM   C13131824   3.505   2.769   9.265  0.5538 -0.2883  0.3812
   27HTM   C13231825   3.468   2.899   9.279  1.2619 -0.1109  0.6381
   27HTM   C13331826   3.366   2.920   9.379  1.0668  0.1864  0.3777
   27HTM   C13431827   3.326   2.806   9.441  0.2100  0.2357 -0.0777
   27HTM    S1431828   3.413   2.661   9.378 -0.4218 -0.0920 -0.2141
   28TAL   C13531829   3.319   3.061   9.392 -0.1403  0.3980  0.8425
   28TAL   C13631830   3.171   3.096   9.426  0.8261 -0.2417  0.6013
   28TAL   C13731831   3.141   3.238   9.455  0.0584  0.4456 -0.3321
   28TAL   C13831832   2.996   3.259   9.498 -0.3076 -0.1495  0.3000
   28TAL   C13931833   2.961   3.407   9.497  0.4411  0.4694 -0.4539
   28TAL   C14031834   2.815   3.430   9.483 -0.2080  0.1287 -0.1261
   29HTM   C14131835   3.246   2.764   9.557 -0.4799 -0.3947 -0.1629
   29HTM   C14231836   3.113   2.737   9.568 -0.3794 -0.7416  0.2502
   29HTM   C14331837   3.077   2.670   9.690  0.1081 -0.4117  0.5784
   29HTM   C14431838   3.183   2.645   9.772  0.3795  0.1867  0.4156
   29HTM    S1531839   3.337   2.705   9.701  0.0375  0.3817 -0.1695
   30TAL   C14531840   2.936   2.628   9.716  0.5695 -0.0916  0.1645
   30TAL   C14631841   2.879   2.507   9.627  0.0805 -0.5285  0.4823
   30TAL   C14731842   2.740   2.470   9.680 -0.8055  0.3921 -0.2608
   30TAL   C14831843   2.732   2.429   9.827  0.2168  0.1571 -0.0855
   30TAL   C14931844   2.587   2.431   9.883  0.2738  0.4136 -0.7263
   30TAL   C15031845   2.583   2.414  10.033  0.1857 -0.4577  0.5311
   31HTM   C15131846   3.190   2.580   9.901 -0.4234  0.2267  0.0568
   31HTM   C15231847   3.300   2.572   9.981 -0.3700  0.5800  0.0223
   31HTM   C15331848   3.274   2.514  10.110 -0.1820  0.6707  0.1013
   31HTM   C15431849   3.143   2.478  10.129 -0.0919  0.3865  0.1962
   31HTM    S1631850   3.043   2.515   9.984 -0.2387 -0.0208  0.1930
   32TAL   C15531851   3.393   2.499  10.205  0.4296 -0.6545 -0.5989
   32TAL   C15631852   3.427   2.621  10.294  0.0967  0.0464 -0.2196
   32TAL   C15731853   3.526   2.597  10.406 -0.0670 -0.0188 -0.2875
   32TAL   C15831854   3.671   2.587  10.369  0.0115  0.5314  1.0372
   32TAL   C15931855   3.755   2.563  10.495  0.6556  0.0649 -0.0236
   32TAL   C16031856   3.898   2.607  10.475  0.7183 -0.1840  0.4424
   33HTM   C16131857   3.077   2.402  10.233  0.2642 -0.2036 -0.1885
   33HTM   C16231858   2.952   2.348  10.227  0.2702 -0.1986 -0.3568
   33HTM   C16331859   2.915   2.274  10.345  0.0341 -0.0356 -0.3280
   33HTM   C16431860   3.012   2.272  10.441 -0.1518  0.0835 -0.1378
   33HTM    S1731861   3.158   2.364  10.390 -0.0423 -0.0014  0.0210
   34TAL   C16531862   2.773   2.221  10.375 -0.5861 -0.0667  0.1158
   34TAL   C16631863   2.721   2.122  10.270  0.1002  0.2355 -0.0005
   34TAL   C16731864   2.574   2.079  10.299 -0.1979 -0.5007 -0.1954
   34TAL   C16831865   2.530   1.961  10.218 -0.7278  0.4712 -0.3738
   34TAL   C16931866   2.576   1.822  10.264  0.4234 -0.2195 -0.1296
   34TAL   C17031867   2.519   1.702  10.195 -0.1225  0.0636 -0.4176
   35HTM   C17131868   3.024   2.209  10.570 -0.1173  0.3209  0.4657
   35HTM   C17231869   2.928   2.172  10.659  0.2071  0.4317  0.8617
   35HTM   C17331870   2.980   2.102  10.774  0.5980  0.3625  0.6447
   35HTM   C17431871   3.116   2.085  10.772  0.5716  0.1991  0.0832
   35HTM    S1831872   3.189   2.158  10.624  0.0469  0.1192 -0.2174
   36TAL   C17531873   2.877   2.050  10.876  0.1241 -0.2563  0.4417
   36TAL   C17631874   2.741   2.000  10.840  0.0813 -0.0884  0.1140
   36TAL   C17731875   2.741   1.880  10.748  0.3703  0.4791  0.0133
   36TAL   C17831876   2.602   1.824  10.712 -0.1370  0.5064 -0.3179
   36TAL   C17931877   2.537   1.747  10.831 -0.6511  0.2919  0.7783
   36TAL   C18031878   2.417   1.666  10.790  0.1702 -0.1939  0.1461
   37HTM   C18131879   3.203   2.019  10.865  0.3439  0.2501 -0.1711
   37HTM   C18231880   3.240   2.068  10.986  0.5634  0.1824 -0.2100
   37HTM   C18331881   3.343   1.991  11.052  0.3625 -0.1087 -0.2366
   37HTM   C18431882   3.384   1.883  10.980 -0.0103 -0.2630 -0.2180
   37HTM    S1931883   3.295   1.869  10.824 -0.1374 -0.0508 -0.1648
   38TAL   C18531884   3.401   2.052  11.181  0.1285  0.5222 -0.9336
   38TAL   C18631885   3.455   2.189  11.166 -0.3035 -0.2994 -0.2787
   38TAL   C18731886   3.433   2.276  11.297 -0.1549  0.5001 -0.3441
   38TAL   C18831887   3.519   2.396  11.287  0.5192 -0.5292  0.5031
   38TAL   C18931888   3.492   2.508  11.385 -0.3380 -0.5727  0.4925
   38TAL   C19031889   3.563   2.635  11.351  0.1396 -0.0301  0.3531
   39HTM   C19131890   3.484   1.784  11.008  0.1027  0.2496  0.0897
   39HTM   C19231891   3.487   1.656  10.963 -0.1839  0.2766 -0.0052
   39HTM   C19331892   3.603   1.581  11.005 -0.2120  0.0700 -0.2859
   39HTM   C19431893   3.688   1.653  11.084  0.0538 -0.1145 -0.4052
   39HTM    S2031894   3.629   1.822  11.110  0.3618 -0.0410 -0.1705
   40TAL   C19531895   3.622   1.430  10.973 -0.1095 -0.1365 -1.1087
   40TAL   C19631896   3.496   1.342  10.955  0.2627 -0.7145 -0.5929
   40TAL   C19731897   3.519   1.192  10.943 -0.0106  0.2329 -0.5287
   40TAL   C19831898   3.411   1.130  10.860 -0.0369  0.6177  0.1627
   40TAL   C19931899   3.458   0.990  10.830  0.0950 -0.5382  0.5574
   40TAL   C20031900   3.550   0.981  10.711 -0.8834  0.3192  0.1015
   41HTM   C20131901   3.817   1.626  11.142  0.0585  0.2299 -0.1617
   41HTM   C20231902   3.912   1.719  11.174  0.0120  0.3034 -0.2366
   41HTM   C20331903   4.030   1.663  11.234  0.0145  0.4179 -0.1352
   41HTM   C20431904   4.026   1.528  11.248  0.0632  0.4317  0.0173
   41HTM    S2131905   3.871   1.460  11.186  0.1099  0.3002  0.0446
   42TAL   C20531906   4.135   1.751  11.281  0.4430 -0.0391 -0.2129
   42TAL   C20631907   4.127   1.826  11.420 -0.1684 -0.3053 -0.3350
   42TAL   C20731908   4.006   1.910  11.453  0.0004  0.0336  0.3083
   42TAL   C20831909   4.008   2.046  11.380  0.1840 -0.2998  0.4137
   42TAL   C20931910   3.870   2.104  11.361 -0.0939 -0.6710  0.1295
   42TAL   C21031911   3.870   2.237  11.292  0.2216 -0.2546  0.1434
   43HTM   C21131912   4.112   1.423  11.302  0.1525  0.2340 -0.1022
   43HTM   C21231913   4.075   1.294  11.322  0.0930  0.2571 -0.0635
   43HTM   C21331914   4.181   1.210  11.373  0.0687  0.2123 -0.0868
   43HTM   C21431915   4.298   1.276  11.392  0.1096  0.1550 -0.1434
   43HTM    S2231916   4.285   1.450  11.346  0.1825  0.1532 -0.1719
   44TAL   C21531917   4.166   1.056  11.410 -0.2900 -0.2665  0.1626
   44TAL   C21631918   4.043   0.974  11.366 -0.0174 -0.0822 -0.6460
   44TAL   C21731919   3.992   0.992  11.223  0.0252 -0.1940  0.0626
   44TAL   C21831920   3.898   0.885  11.175  0.6274  0.1722 -0.9911
   44TAL   C21931921   3.840   0.911  11.044  0.0192  0.0885  0.2676
   44TAL   C22031922   3.745   0.807  11.004 -0.1587  0.4096 -0.1475
   45HTM   C22131923   4.431   1.236  11.433 -0.1505  0.1706  0.2567
   45HTM   C22231924   4.486   1.112  11.420 -0.5913 -0.0679  0.6355
   45HTM   C22331925   4.628   1.109  11.442 -0.5569 -0.4553  0.3633
   45HTM   C22431926   4.682   1.230  11.472 -0.0894 -0.5120 -0.2225
   45HTM    S2331927   4.556   1.359  11.475  0.3465 -0.0773 -0.4785
   46TAL   C22531928   4.722   0.984  11.422 -0.1647 -0.0252 -0.2324
   46TAL   C22631929   4.715   0.927  11.279 -0.3471  0.5540  0.1980
   46TAL   C22731930   4.776   0.779  11.275  0.4533 -0.5167 -0.6069
   46TAL   C22831931   4.735   0.678  11.171 -0.1346 -0.2575  0.0155
   46TAL   C22931932   4.746   0.730  11.023  0.6777  0.1527 -0.6287
   46TAL   C23031933   4.683   0.634  10.921  0.4938  0.2028  0.0843
   47HTM   C23131934   4.821   1.280  11.490 -0.1336  0.0085  0.3151
   47HTM   C23231935   4.927   1.235  11.562 -0.2975  0.2050  0.6839
   47HTM   C23331936   5.048   1.310  11.540 -0.2532  0.1584  0.7674
   47HTM   C23431937   5.033   1.413  11.452 -0.0558 -0.0736  0.4623
   47HTM    S2431938   4.864   1.422  11.388  0.0908 -0.2527  0.0426
   48TAL   C23531939   5.182   1.276  11.601  0.6370  0.0500 -0.4417
   48TAL   C23631940   5.315   1.310  11.540 -0.0038 -0.8990 -0.0555
   48TAL   C23731941   5.438   1.307  11.629  0.2154  0.1480  0.4525
   48TAL   C23831942   5.569   1.321  11.554 -0.1479 -0.1534  0.0519
   48TAL   C23931943   5.694   1.338  11.636  0.3368  0.6057  0.4652
   48TAL   C24031944   5.815   1.341  11.553 -0.0437 -0.3832  0.1751
    1HTM     C131945   3.058   8.207   3.450 -0.0468  0.4411  0.1492
    1HTM     C231946   3.017   8.329   3.495 -0.2692  0.1864  0.6464
    1HTM     C331947   2.874   8.347   3.493 -0.3222 -0.1869  1.0382
    1HTM     C431948   2.806   8.239   3.447 -0.1400 -0.2180  0.8397
    1HTM     S131949   2.918   8.105   3.402  0.1143  0.2264  0.1370
    2TAL     C531950   2.819   8.480   3.539  0.3217  0.2495  0.7902
    2TAL     C631951   2.772   8.572   3.429 -0.4243 -0.3509  0.3894
    2TAL     C731952   2.677   8.687   3.474  0.3203  0.2324  0.0529
    2TAL     C831953   2.540   8.640   3.531 -0.5265 -0.2481 -0.1167
    2TAL     C931954   2.451   8.762   3.556  0.1953 -0.4757 -0.3514
    2TAL    C1031955   2.309   8.726   3.595 -0.5470 -0.3287  0.3249
    3HTM    C1131956   2.661   8.217   3.433  0.1260 -0.1156 -0.0137
    3HTM    C1231957   2.560   8.255   3.516  0.2116 -0.0381  0.0547
    3HTM    C1331958   2.430   8.210   3.474  0.1389  0.1326  0.0993
    3HTM    C1431959   2.431   8.139   3.358 -0.0021  0.1849  0.0650
    3HTM     S231960   2.598   8.121   3.293 -0.0548  0.0214 -0.0271
    4TAL    C1531961   2.306   8.237   3.563 -0.6187 -0.1935  0.9172
    4TAL    C1631962   2.278   8.171   3.700 -0.1541 -0.3976 -0.3860
    4TAL    C1731963   2.258   8.024   3.707  0.0950  0.4975  0.2539
    4TAL    C1831964   2.273   7.977   3.848 -0.0854  0.2047 -0.5260
    4TAL    C1931965   2.245   7.826   3.854 -0.6422  0.4610  0.3252
    4TAL    C2031966   2.220   7.764   3.986  0.1196 -0.1853  0.4719
    5HTM    C2131967   2.323   8.079   3.290  0.2964 -0.0672 -0.4512
    5HTM    C2231968   2.266   8.139   3.183  0.7832 -0.5479 -0.9893
    5HTM    C2331969   2.136   8.086   3.149  0.7399 -0.3982 -1.0585
    5HTM    C2431970   2.095   7.985   3.230  0.2202  0.1964 -0.5732
    5HTM     S331971   2.218   7.949   3.358 -0.2588  0.6166  0.0134
    6TAL    C2531972   2.068   8.154   3.035 -0.2408  0.0762  0.3905
    6TAL    C2631973   2.007   8.294   3.058  0.0981  0.5305  0.0176
    6TAL    C2731974   1.941   8.364   2.949  0.7023 -0.1602  0.3168
    6TAL    C2831975   1.867   8.489   2.998 -0.1184  0.2899 -0.4120
    6TAL    C2931976   1.762   8.537   2.908 -0.4012  0.2489  0.8369
    6TAL    C3031977   1.686   8.655   2.950 -0.3732  0.3450 -0.1746
    7HTM    C3131978   1.974   7.896   3.218 -0.1050 -0.0169  0.6135
    7HTM    C3231979   1.942   7.792   3.300 -0.4125  0.0160  0.5358
    7HTM    C3331980   1.819   7.725   3.264 -0.3025  0.0310  0.1338
    7HTM    C3431981   1.759   7.778   3.154  0.0888  0.0093 -0.0954
    7HTM     S431982   1.851   7.917   3.087  0.3508 -0.0316  0.1812
    8TAL    C3531983   1.769   7.610   3.353  0.5300  0.2505  0.0967
    8TAL    C3631984   1.789   7.626   3.501  0.3541  0.1552 -0.2028
    8TAL    C3731985   1.766   7.502   3.583 -0.1518  0.2842 -1.1125
    8TAL    C3831986   1.799   7.505   3.730  0.0922 -0.8365 -0.3521
    8TAL    C3931987   1.935   7.540   3.788 -0.5262  0.4114  0.3914
    8TAL    C4031988   1.928   7.544   3.942  0.0957  0.0131 -0.0957
    9HTM    C4131989   1.639   7.737   3.088 -0.0054 -0.2847 -0.4518
    9HTM    C4231990   1.554   7.819   3.019 -0.2868 -0.3898 -0.2298
    9HTM    C4331991   1.438   7.751   2.968 -0.3974 -0.5107  0.1744
    9HTM    C4431992   1.434   7.618   2.997 -0.2003 -0.4974  0.2605
    9HTM     S531993   1.579   7.567   3.093  0.1430 -0.3302 -0.1655
   10TAL    C4531994   1.335   7.842   2.893  0.5760  0.5234  0.2927
   10TAL    C4631995   1.239   7.919   2.980 -0.1483  0.1006  0.4399
   10TAL    C4731996   1.145   8.002   2.894 -0.0072 -0.3326  0.3348
   10TAL    C4831997   1.025   7.932   2.827 -0.1952  0.1030  0.6746
   10TAL    C4931998   1.040   7.865   2.688  0.2008  0.2738 -0.0057
   10TAL    C5031999   1.079   7.955   2.569  0.5258 -0.5242  0.1372
   11HTM    C5132000   1.338   7.516   2.944 -0.0162 -0.2751  0.2453
   11HTM    C5232001   1.356   7.381   2.946 -0.2573 -0.3176 -0.1913
   11HTM    C5332002   1.236   7.306   2.916 -0.3599 -0.0055 -0.5615
   11HTM    C5432003   1.128   7.384   2.890 -0.1971  0.2744 -0.4070
   11HTM     S632004   1.168   7.560   2.902  0.1009  0.1652  0.2228
   12TAL    C5532005   1.233   7.154   2.941  0.4439  0.1947 -0.4756
   12TAL    C5632006   1.286   7.056   2.837 -0.3749 -0.1280  0.4058
   12TAL    C5732007   1.199   7.058   2.706 -0.1137 -0.6112 -0.5040
   12TAL    C5832008   1.243   6.936   2.628  0.0850 -0.2091 -0.6429
   12TAL    C5932009   1.193   6.928   2.488  0.1385 -0.1327  0.4247
   12TAL    C6032010   1.197   6.793   2.436 -0.2079 -0.3662 -0.0156
   13HTM    C6132011   0.986   7.360   2.866  0.1321  0.2197  0.0518
   13HTM    C6232012   0.922   7.266   2.791  0.3247  0.1972 -0.0823
   13HTM    C6332013   0.779   7.271   2.799  0.3119 -0.1042 -0.0755
   13HTM    C6432014   0.732   7.371   2.880  0.1096 -0.3113  0.0634
   13HTM     S732015   0.867   7.465   2.954 -0.0819 -0.1404  0.1978
   14TAL    C6532016   0.685   7.176   2.722 -0.7041 -0.0446 -0.2241
   14TAL    C6632017   0.742   7.105   2.599 -0.4264  0.3556  0.4046
   14TAL    C6732018   0.781   7.200   2.485 -0.1813  0.2350  0.6393
   14TAL    C6832019   0.865   7.136   2.383  0.9581  0.2065 -0.4001
   14TAL    C6932020   0.851   7.206   2.249  0.4094  0.9746  0.1131
   14TAL    C7032021   0.945   7.154   2.141  0.1854 -0.0927 -0.1378
   15HTM    C7132022   0.606   7.414   2.930  0.2175  0.2539  0.0427
   15HTM    C7232023   0.582   7.537   2.983 -0.1468  0.1247  0.1770
   15HTM    C7332024   0.445   7.556   3.026 -0.2549 -0.2484  0.0006
   15HTM    C7432025   0.365   7.447   3.004  0.0270 -0.4039 -0.2682
   15HTM     S832026   0.457   7.311   2.928  0.4542 -0.0889 -0.3197
   16TAL    C7532027   0.412   7.689   3.091  0.2749 -0.5273 -0.4425
   16TAL    C7632028   0.445   7.690   3.243 -0.2431 -0.2112  0.6735
   16TAL    C7732029   0.369   7.788   3.325  0.3809 -0.4695  0.1706
   16TAL    C7832030   0.401   7.941   3.303 -0.1008 -0.4454  0.8490
   16TAL    C7932031   0.325   8.045   3.384 -0.1468  0.2585 -0.3948
   16TAL    C8032032   0.362   8.184   3.336  0.5096  0.4333 -0.7581
   17HTM    C8132033   0.223   7.422   3.028 -0.1673  0.0100  0.4006
   17HTM    C8232034   0.143   7.482   3.121 -0.2555 -0.3979  0.5885
   17HTM    C8332035   0.008   7.433   3.121 -0.2189 -0.5000  0.3414
   17HTM    C8432036  -0.015   7.336   3.028 -0.1026 -0.1700 -0.0350
   17HTM     S932037   0.133   7.299   2.933 -0.0299  0.2991 -0.1070
   18TAL    C8532038  -0.098   7.487   3.211 -0.0539 -0.2220 -0.2465
   18TAL    C8632039  -0.055   7.577   3.333 -0.0514 -0.4172  0.4194
   18TAL    C8732040  -0.168   7.665   3.382 -0.0617 -0.2915  0.3609
   18TAL    C8832041  -0.114   7.774   3.481  0.2494 -0.2298  0.0122
   18TAL    C8932042  -0.008   7.877   3.438 -0.2519 -0.1908  0.5793
   18TAL    C9032043   0.038   7.960   3.558 -0.0269 -0.7325 -0.1497
   19HTM    C9132044  -0.145   7.268   2.992 -0.0761  0.3891  0.1946
   19HTM    C9232045  -0.273   7.314   2.985 -0.1240  0.2007 -0.1805
   19HTM    C9332046  -0.369   7.212   2.952  0.1020  0.0277 -0.3066
   19HTM    C9432047  -0.314   7.088   2.934  0.3224  0.0844 -0.0276
   19HTM    S1032048  -0.135   7.092   2.957  0.2621  0.3624  0.4195
   20TAL    C9532049  -0.516   7.239   2.930  0.1641  0.6269  1.3245
   20TAL    C9632050  -0.592   7.304   3.049 -0.2394 -0.2107  0.1980
   20TAL    C9732051  -0.731   7.335   3.025 -0.2134 -0.5550 -0.2630
   20TAL    C9832052  -0.805   7.365   3.156  0.4719  0.2238  0.1288
   20TAL    C9932053  -0.935   7.426   3.118 -0.1047 -0.2998  0.0274
   20TAL   C10032054  -1.006   7.466   3.245  0.5535 -0.6162  0.5327
   21HTM   C10132055  -0.363   6.972   2.874 -0.2503 -0.5393 -0.3251
   21HTM   C10232056  -0.315   6.900   2.769 -0.8206 -0.4749 -0.6336
   21HTM   C10332057  -0.399   6.788   2.732 -1.1292 -0.3276 -0.3862
   21HTM   C10432058  -0.510   6.775   2.809 -0.7934 -0.2800  0.1108
   21HTM    S1132059  -0.519   6.904   2.935 -0.0560 -0.4179  0.3065
   22TAL   C10532060  -0.360   6.701   2.618  0.3992 -0.3305 -0.1359
   22TAL   C10632061  -0.238   6.605   2.628  0.5283  0.8193 -0.7508
   22TAL   C10732062  -0.258   6.492   2.729 -1.0474  0.0558 -0.5060
   22TAL   C10832063  -0.371   6.393   2.706  1.1901  0.5814  0.0890
   22TAL   C10932064  -0.400   6.296   2.823 -1.0533  0.3093  0.0497
   22TAL   C11032065  -0.284   6.202   2.855 -0.0125  0.9486 -0.6266
   23HTM   C11132066  -0.618   6.671   2.807 -0.1494  0.2314  0.0717
   23HTM   C11232067  -0.719   6.644   2.721 -0.2227  0.4177  0.0985
   23HTM   C11332068  -0.811   6.544   2.769 -0.2398  0.3889  0.0051
   23HTM   C11432069  -0.779   6.495   2.892 -0.1797  0.1804 -0.0930
   23HTM    S1232070  -0.630   6.572   2.957 -0.0963  0.0031 -0.0748
   24TAL   C11532071  -0.920   6.504   2.667  0.1409  0.3129  0.5821
   24TAL   C11632072  -1.060   6.479   2.713 -0.0418  0.0765 -0.5538
   24TAL   C11732073  -1.147   6.424   2.602 -0.8842  0.5771 -1.0161
   24TAL   C11832074  -1.293   6.374   2.633  0.1676  0.4483  0.1355
   24TAL   C11932075  -1.393   6.465   2.705  0.0919  0.1452  0.5222
   24TAL   C12032076  -1.408   6.604   2.651  0.3737 -0.3246 -0.0730
   25HTM   C12132077  -0.828   6.385   2.969 -0.3431 -0.1649 -0.0240
   25HTM   C12232078  -0.952   6.340   3.003 -0.2527 -0.6139 -0.2860
   25HTM   C12332079  -0.951   6.228   3.094 -0.0415 -0.6020 -0.2748
   25HTM   C12432080  -0.825   6.188   3.129  0.0295 -0.1445 -0.0042
   25HTM    S1332081  -0.699   6.289   3.050 -0.1664  0.3112  0.2595
   26TAL   C12532082  -1.078   6.167   3.139  0.1728  0.5787 -0.0998
   26TAL   C12632083  -1.136   6.223   3.273 -0.4526 -0.0161 -0.3522
   26TAL   C12732084  -1.270   6.161   3.314  0.1049 -0.3073 -0.6649
   26TAL   C12832085  -1.272   6.013   3.349 -0.4800  0.2840  0.2105
   26TAL   C12932086  -1.187   5.973   3.476 -0.3324 -0.1036 -0.1308
   26TAL   C13032087  -1.227   5.823   3.496  0.9691 -0.3605  0.2252
   27HTM   C13132088  -0.773   6.090   3.223 -0.0688  0.2371  0.1819
   27HTM   C13232089  -0.651   6.099   3.285 -0.0424  0.1769  0.1402
   27HTM   C13332090  -0.630   5.998   3.385 -0.0324  0.1268  0.0883
   27HTM   C13432091  -0.735   5.912   3.401 -0.0503  0.1492  0.0905
   27HTM    S1432092  -0.870   5.953   3.288 -0.0823  0.2356  0.1585
   28TAL   C13532093  -0.499   5.998   3.466 -0.1501 -0.0956  0.2311
   28TAL   C13632094  -0.371   5.975   3.392  0.5195 -0.2842  0.3959
   28TAL   C13732095  -0.252   5.974   3.487  0.7749 -0.7155 -0.4115
   28TAL   C13832096  -0.232   5.850   3.570 -0.4629  0.7034 -0.2135
   28TAL   C13932097  -0.111   5.842   3.666 -0.1653  0.0593  0.1103
   28TAL   C14032098   0.034   5.872   3.612  0.0798  0.6810 -0.0122
   29HTM   C14132099  -0.755   5.801   3.495  0.2984 -0.0529 -0.1050
   29HTM   C14232100  -0.873   5.742   3.532  0.1984 -0.1235 -0.5296
   29HTM   C14332101  -0.857   5.638   3.630 -0.0939 -0.1278 -0.4867
   29HTM   C14432102  -0.728   5.618   3.668 -0.2170 -0.0604 -0.0293
   29HTM    S1532103  -0.615   5.729   3.582  0.0289  0.0142  0.3859
   30TAL   C14532104  -0.981   5.593   3.709 -1.2981 -0.0742 -0.5558
   30TAL   C14632105  -1.050   5.698   3.798 -0.0757  0.1825 -0.2050
   30TAL   C14732106  -1.165   5.630   3.878  0.1262 -0.1823  0.5238
   30TAL   C14832107  -1.276   5.574   3.784  0.1481 -0.1094  0.1739
   30TAL   C14932108  -1.392   5.506   3.857 -0.0369 -0.3966  0.2537
   30TAL   C15032109  -1.487   5.599   3.932  0.8499 -0.2153  0.2675
   31HTM   C15132110  -0.677   5.529   3.773  0.2015 -0.3560  0.5880
   31HTM   C15232111  -0.572   5.566   3.852  0.2513 -0.6709  0.6713
   31HTM   C15332112  -0.524   5.462   3.938  0.0682 -0.9067  0.4867
   31HTM   C15432113  -0.593   5.344   3.925 -0.1227 -0.7715  0.2632
   31HTM    S1632114  -0.724   5.357   3.801 -0.0846 -0.3323  0.2682
   32TAL   C15532115  -0.417   5.502   4.040 -0.1773 -0.0845 -0.6884
   32TAL   C15632116  -0.283   5.559   3.971 -1.2231 -0.1231  0.2214
   32TAL   C15732117  -0.166   5.602   4.062 -0.0218  0.1701 -0.9566
   32TAL   C15832118  -0.106   5.519   4.174 -0.0282 -0.1728 -0.5791
   32TAL   C15932119  -0.062   5.372   4.139 -0.1603  0.0645 -0.4067
   32TAL   C16032120   0.007   5.289   4.249 -0.2503 -0.6671  0.3636
   33HTM   C16132121  -0.571   5.214   3.988 -0.0442 -0.4474 -0.5753
   33HTM   C16232122  -0.661   5.120   4.029 -0.0453 -0.3345 -0.3159
   33HTM   C16332123  -0.602   5.010   4.101 -0.0572 -0.0951  0.0625
   33HTM   C16432124  -0.467   5.021   4.115 -0.0652 -0.0255  0.0911
   33HTM    S1732125  -0.403   5.171   4.038 -0.0586 -0.2588 -0.3606
   34TAL   C16532126  -0.682   4.884   4.143  0.7469 -0.5399 -0.0158
   34TAL   C16632127  -0.738   4.791   4.037  0.4776 -0.2431 -0.6595
   34TAL   C16732128  -0.774   4.645   4.072 -0.5593  0.3065  0.1328
   34TAL   C16832129  -0.668   4.568   4.150 -0.2739  0.1004  0.0197
   34TAL   C16932130  -0.712   4.428   4.173 -0.4376  0.0156 -0.8805
   34TAL   C17032131  -0.625   4.350   4.269 -0.3635 -0.0688 -0.8658
   35HTM   C17132132  -0.359   4.931   4.156 -0.0248  0.4646 -0.8723
   35HTM   C17232133  -0.367   4.817   4.230 -0.6447  0.4973 -0.8824
   35HTM   C17332134  -0.239   4.754   4.254 -0.8998  0.2074 -0.2577
   35HTM   C17432135  -0.134   4.820   4.198 -0.4739 -0.0462  0.2286
   35HTM    S1832136  -0.188   4.968   4.110  0.2878  0.0621 -0.0666
   36TAL   C17532137  -0.224   4.621   4.331  0.1517  0.1859 -0.0213
   36TAL   C17632138  -0.241   4.493   4.253  0.0724  0.0449  0.0516
   36TAL   C17732139  -0.267   4.374   4.352  0.4660  0.1451  0.2308
   36TAL   C17832140  -0.306   4.242   4.290  0.6885  0.0640  0.4974
   36TAL   C17932141  -0.301   4.117   4.378  0.0653 -0.7310 -0.1156
   36TAL   C18032142  -0.376   4.129   4.511  0.3453  0.2701  0.1057
   37HTM   C18132143   0.012   4.813   4.220  0.0764  0.4187 -0.2263
   37HTM   C18232144   0.101   4.916   4.226  0.4213  0.1576 -0.7405
   37HTM   C18332145   0.238   4.874   4.245  0.3402 -0.2232 -1.0011
   37HTM   C18432146   0.252   4.738   4.252 -0.0666 -0.2520 -0.6855
   37HTM    S1932147   0.094   4.653   4.237 -0.3812  0.2029 -0.0299
   38TAL   C18532148   0.351   4.972   4.251 -0.1391  0.1351 -0.1345
   38TAL   C18632149   0.353   5.095   4.150  0.3778  0.0089 -0.2876
   38TAL   C18732150   0.351   5.074   3.997 -0.1350  0.3353 -0.6693
   38TAL   C18832151   0.217   5.032   3.923 -0.5138  0.4442  0.3689
   38TAL   C18932152   0.125   5.153   3.918  0.0896 -0.0729 -0.0264
   38TAL   C19032153  -0.006   5.122   3.849  0.3558 -0.0858  0.2414
   39HTM   C19132154   0.370   4.657   4.265  0.4260  0.3960  0.1264
   39HTM   C19232155   0.410   4.557   4.181  0.5400  0.7923 -0.2949
   39HTM   C19332156   0.544   4.512   4.204  0.4896  0.6454 -0.2866
   39HTM   C19432157   0.608   4.578   4.305  0.3371  0.1369  0.1415
   39HTM    S2032158   0.502   4.702   4.380  0.2446 -0.1983  0.5704
   40TAL   C19532159   0.597   4.388   4.132 -0.2166  0.3964  0.3322
   40TAL   C19632160   0.545   4.256   4.183  0.1442 -0.3244 -0.2782
   40TAL   C19732161   0.597   4.125   4.118  0.3846  0.2423 -0.3280
   40TAL   C19832162   0.752   4.112   4.115  0.0813 -0.0437 -0.4407
   40TAL   C19932163   0.803   3.994   4.036  0.0655 -0.1649  0.6326
   40TAL   C20032164   0.943   4.010   3.999 -0.5629 -0.1161 -0.3054
   41HTM   C20132165   0.748   4.577   4.337 -0.0020  0.1426  0.3565
   41HTM   C20232166   0.825   4.483   4.398  0.1137  0.3493  0.5293
   41HTM   C20332167   0.961   4.524   4.419  0.1907  0.3614 -0.0005
   41HTM   C20432168   0.988   4.649   4.372  0.1338  0.1639 -0.5772
   41HTM    S2132169   0.843   4.726   4.299 -0.0228 -0.0543 -0.4952
   42TAL   C20532170   1.056   4.433   4.490 -0.2180  0.0341  0.8739
   42TAL   C20632171   1.014   4.307   4.566  0.0203 -0.9242 -0.0065
   42TAL   C20732172   0.976   4.206   4.463  0.0989 -0.0584  0.8033
   42TAL   C20832173   0.982   4.065   4.508  0.5911  0.2069  0.4022
   42TAL   C20932174   0.993   3.983   4.386 -0.2344  0.5036  0.0058
   42TAL   C21032175   0.998   3.841   4.420 -0.1877  0.2900 -0.0632
   43HTM   C21132176   1.112   4.724   4.360 -0.0983  0.0409 -0.6110
   43HTM   C21232177   1.234   4.685   4.406 -0.2039 -0.2856 -0.6032
   43HTM   C21332178   1.334   4.788   4.398 -0.0348 -0.4172 -0.2022
   43HTM   C21432179   1.289   4.905   4.346  0.1996 -0.1911  0.0955
   43HTM    S2232180   1.114   4.895   4.302  0.2253  0.2091 -0.1085
   44TAL   C21532181   1.477   4.750   4.434 -0.4177 -0.1603  0.2186
   44TAL   C21632182   1.489   4.705   4.579 -0.1511  0.2903  0.0012
   44TAL   C21732183   1.630   4.643   4.616  0.2619 -0.2027  0.5219
   44TAL   C21832184   1.696   4.554   4.510 -0.1866  0.6085  0.4507
   44TAL   C21932185   1.631   4.423   4.466  0.2452 -0.2361 -0.5962
   44TAL   C22032186   1.716   4.330   4.377  0.1821 -0.5202  0.0483
   45HTM   C22132187   1.357   5.034   4.322 -0.0128  0.0056 -0.7879
   45HTM   C22232188   1.293   5.152   4.300  0.0578  0.0272 -0.8805
   45HTM   C22332189   1.380   5.266   4.293  0.0707  0.0532 -0.3498
   45HTM   C22432190   1.512   5.235   4.310  0.0100  0.0515  0.1482
   45HTM    S2332191   1.536   5.058   4.336 -0.0688  0.0167 -0.0165
   46TAL   C22532192   1.323   5.403   4.275 -0.4070 -0.0296 -0.0583
   46TAL   C22632193   1.302   5.482   4.407 -0.2476  0.0913  0.4037
   46TAL   C22732194   1.216   5.607   4.402 -0.0398 -0.1324  0.2338
   46TAL   C22832195   1.075   5.594   4.353  0.3101  0.0068 -0.1168
   46TAL   C22932196   1.006   5.710   4.280 -0.4715 -0.0221 -0.2030
   46TAL   C23032197   0.886   5.649   4.214 -0.0621  0.2832 -0.2421
   47HTM   C23132198   1.631   5.315   4.314 -0.4302  0.4081 -0.0326
   47HTM   C23232199   1.727   5.315   4.411 -0.7336  0.5548  0.2677
   47HTM   C23332200   1.824   5.420   4.398 -0.5827  0.4222  0.3026
   47HTM   C23432201   1.802   5.501   4.290 -0.1644  0.1737  0.0282
   47HTM    S2432202   1.656   5.449   4.197  0.0734  0.0877 -0.2977
   48TAL   C23532203   1.932   5.465   4.499 -0.4428  0.1278  0.5280
   48TAL   C23632204   2.004   5.344   4.549  0.8952 -0.1168 -1.1653
   48TAL   C23732205   2.135   5.364   4.623 -0.3114  0.0767  0.5942
   48TAL   C23832206   2.195   5.223   4.662 -0.0973  0.0837 -0.3597
   48TAL   C23932207   2.332   5.229   4.725  0.0042  0.3558  0.1546
   48TAL   C24032208   2.416   5.100   4.744 -0.0860  0.4363  0.4541
    1HTM     C132209   8.365   5.322   6.000 -0.0018 -0.1402  0.4568
    1HTM     C232210   8.262   5.350   5.914 -0.0749  0.1287  0.6299
    1HTM     C332211   8.166   5.243   5.904 -0.1879  0.2413  0.5269
    1HTM     C432212   8.195   5.135   5.981 -0.2004  0.0580  0.2754
    1HTM     S132213   8.348   5.159   6.074 -0.0695 -0.2736  0.1481
    2TAL     C532214   8.046   5.261   5.807  0.0282 -0.0046 -0.8226
    2TAL     C632215   7.947   5.367   5.837 -0.1489  0.0088  0.3927
    2TAL     C732216   7.880   5.353   5.978 -0.6931 -0.0894 -0.3482
    2TAL     C832217   7.777   5.468   5.995  0.3557 -0.1577 -0.2939
    2TAL     C932218   7.714   5.452   6.132 -0.8404 -0.5915 -0.3749
    2TAL    C1032219   7.620   5.561   6.174  0.3235  0.4390 -0.6562
    3HTM    C1132220   8.128   5.004   6.005 -0.1052  0.4126  0.1006
    3HTM    C1232221   8.172   4.898   6.078 -0.2270  0.4232  0.1910
    3HTM    C1332222   8.089   4.782   6.068 -0.1435  0.3822 -0.0291
    3HTM    C1432223   7.980   4.798   5.988  0.0418  0.3401 -0.2871
    3HTM     S232224   7.975   4.964   5.917  0.1265  0.3490 -0.2725
    4TAL    C1532225   8.100   4.650   6.141  0.0832  0.0453 -0.1229
    4TAL    C1632226   8.231   4.563   6.106 -0.9865  0.0658  0.0628
    4TAL    C1732227   8.266   4.546   5.958  0.2795 -0.0629 -0.3868
    4TAL    C1832228   8.168   4.452   5.885  0.5466 -0.3416  0.1457
    4TAL    C1932229   8.163   4.304   5.924  0.1161 -0.0505  0.1998
    4TAL    C2032230   8.040   4.246   5.852 -0.0517 -0.1910 -0.2596
    5HTM    C2132231   7.874   4.710   5.941  0.3368 -0.4932  0.3743
    5HTM    C2232232   7.749   4.701   5.994  0.4489 -0.8678  0.5822
    5HTM    C2332233   7.651   4.649   5.902  0.3223 -0.5403  0.5274
    5HTM    C2432234   7.703   4.618   5.779  0.1139  0.0844  0.2776
    5HTM     S332235   7.879   4.653   5.770  0.0605  0.3091  0.0902
    6TAL    C2532236   7.507   4.650   5.933  0.0053 -0.2375 -0.6071
    6TAL    C2632237   7.423   4.764   5.863 -0.3652  0.2068 -0.7343
    6TAL    C2732238   7.271   4.758   5.870 -0.7040  0.9137 -0.6035
    6TAL    C2832239   7.222   4.825   5.745  0.4742 -0.1870  0.6414
    6TAL    C2932240   7.076   4.802   5.734  0.1098 -0.0603  0.3245
    6TAL    C3032241   7.031   4.892   5.620  0.4006  0.2940  0.0652
    7HTM    C3132242   7.639   4.601   5.653  0.1149  0.4457  0.3419
    7HTM    C3232243   7.645   4.691   5.551 -0.1357  0.5867  0.4478
    7HTM    C3332244   7.541   4.675   5.453 -0.1583  0.4833  0.4888
    7HTM    C3432245   7.454   4.574   5.481  0.0747  0.2630  0.4137
    7HTM     S432246   7.499   4.489   5.634  0.3431  0.1687  0.2850
    8TAL    C3532247   7.532   4.774   5.332  0.1305  0.2163  0.0109
    8TAL    C3632248   7.539   4.928   5.348  0.3263 -0.4127 -0.1323
    8TAL    C3732249   7.447   4.999   5.443 -0.1380 -0.5217 -0.8088
    8TAL    C3832250   7.297   5.004   5.423  0.5238  0.5150 -0.3569
    8TAL    C3932251   7.241   5.043   5.287  0.1871 -0.0431  0.0169
    8TAL    C4032252   7.100   5.099   5.289 -0.6791  0.1005  0.6035
    9HTM    C4132253   7.327   4.546   5.416 -0.2538 -0.3465  0.1728
    9HTM    C4232254   7.266   4.424   5.404 -0.5078 -0.1841 -0.2000
    9HTM    C4332255   7.135   4.431   5.345 -0.3390  0.2263 -0.5348
    9HTM    C4432256   7.096   4.557   5.312  0.0441  0.3769 -0.4169
    9HTM     S532257   7.223   4.679   5.353  0.2226  0.0090  0.1302
   10TAL    C4532258   7.044   4.307   5.323  0.1478 -0.3340 -0.4979
   10TAL    C4632259   7.090   4.161   5.308  0.2237  0.2595 -0.1499
   10TAL    C4732260   7.206   4.132   5.217 -0.1137  0.1171  0.3514
   10TAL    C4832261   7.221   3.977   5.201 -0.5716 -0.3465  0.1131
   10TAL    C4932262   7.322   3.939   5.090  0.5649 -0.1659 -0.4290
   10TAL    C5032263   7.289   3.984   4.945 -0.8023  0.5490 -0.1114
   11HTM    C5132264   6.975   4.611   5.261 -0.0423  0.0800 -0.2621
   11HTM    C5232265   6.944   4.743   5.252  0.1004  0.0842 -0.7684
   11HTM    C5332266   6.821   4.770   5.182  0.2294 -0.0393 -1.0400
   11HTM    C5432267   6.759   4.658   5.136  0.1852 -0.1374 -0.7406
   11HTM     S632268   6.851   4.509   5.179 -0.0244 -0.0811 -0.0871
   12TAL    C5532269   6.773   4.908   5.154 -0.5551  0.2749 -0.2253
   12TAL    C5632270   6.738   4.987   5.279  0.1579  0.8525 -0.0045
   12TAL    C5732271   6.683   5.125   5.256  0.9346 -0.1182 -0.0493
   12TAL    C5832272   6.559   5.142   5.161 -0.2142 -0.8830 -0.0225
   12TAL    C5932273   6.429   5.070   5.178  0.5748  0.4427 -0.1450
   12TAL    C6032274   6.315   5.131   5.096 -0.9031 -0.8622  0.3308
   13HTM    C6132275   6.632   4.628   5.080 -0.1701 -0.2166 -0.0852
   13HTM    C6232276   6.592   4.511   5.023 -0.2086 -0.0296 -0.4461
   13HTM    C6332277   6.454   4.510   4.982 -0.1645  0.1998 -0.6008
   13HTM    C6432278   6.388   4.626   5.007 -0.0926  0.1879 -0.3580
   13HTM     S732279   6.496   4.747   5.086 -0.0748 -0.1163  0.0883
   14TAL    C6532280   6.397   4.381   4.911  0.0368 -1.0470 -0.0526
   14TAL    C6632281   6.498   4.315   4.826 -0.6091  0.0234  0.6303
   14TAL    C6732282   6.469   4.174   4.773  0.0926  0.0843 -0.7130
   14TAL    C6832283   6.431   4.078   4.889  0.0247 -0.1486 -0.1595
   14TAL    C6932284   6.559   4.030   4.959  0.1162 -0.0540  0.3090
   14TAL    C7032285   6.536   3.940   5.079  0.0567 -0.0103 -0.5092
   15HTM    C7132286   6.249   4.662   4.972 -0.0798 -0.1388 -0.0282
   15HTM    C7232287   6.208   4.791   4.958  0.0119 -0.1438 -0.3412
   15HTM    C7332288   6.069   4.804   4.922  0.1068 -0.1404 -0.7129
   15HTM    C7432289   6.004   4.685   4.909  0.0871 -0.1328 -0.6834
   15HTM     S832290   6.114   4.546   4.942 -0.0538 -0.1293 -0.1800
   16TAL    C7532291   6.001   4.936   4.892  0.4285 -0.2013  0.6524
   16TAL    C7632292   6.076   5.046   4.820 -0.6042  0.4366  0.1618
   16TAL    C7732293   6.009   5.178   4.791 -0.0016  0.8731  0.8577
   16TAL    C7832294   5.855   5.188   4.763 -0.0824  0.0756  0.4051
   16TAL    C7932295   5.803   5.328   4.742  0.8228  0.4576  0.2914
   16TAL    C8032296   5.653   5.311   4.723  0.0968 -0.6288  0.6205
   17HTM    C8132297   5.867   4.647   4.884  0.0164 -0.1511  0.1108
   17HTM    C8232298   5.753   4.682   4.950  0.1228 -0.6733  0.5763
   17HTM    C8332299   5.633   4.626   4.893  0.0877 -0.7231  0.6974
   17HTM    C8432300   5.657   4.548   4.783 -0.0450 -0.2392  0.3238
   17HTM     S932301   5.832   4.540   4.743 -0.1370  0.3216 -0.2135
   18TAL    C8532302   5.497   4.650   4.963  0.4477  0.2459 -0.4993
   18TAL    C8632303   5.380   4.553   4.934 -0.2914 -0.1458 -0.6275
   18TAL    C8732304   5.249   4.589   5.004  0.3537 -0.1247  0.2670
   18TAL    C8832305   5.217   4.552   5.148  0.1862 -0.2348 -0.6384
   18TAL    C8932306   5.098   4.614   5.224  0.0377  0.6758  0.3732
   18TAL    C9032307   5.031   4.743   5.165 -0.6141 -0.1074  0.6140
   19HTM    C9132308   5.567   4.496   4.683  0.6542 -0.2366 -0.3381
   19HTM    C9232309   5.514   4.566   4.579  0.6120 -0.2825 -0.3471
   19HTM    C9332310   5.417   4.492   4.502  0.1957 -0.1400  0.0393
   19HTM    C9432311   5.396   4.366   4.548 -0.0798  0.0144  0.3434
   19HTM    S1032312   5.498   4.330   4.693  0.1678 -0.0083  0.1635
   20TAL    C9532313   5.355   4.546   4.369  0.2445 -0.1163 -0.1584
   20TAL    C9632314   5.267   4.672   4.392 -0.4192 -0.0494 -0.5987
   20TAL    C9732315   5.136   4.652   4.464  0.1510 -0.0450  0.3288
   20TAL    C9832316   5.032   4.555   4.411 -0.1599 -0.6904 -0.0637
   20TAL    C9932317   4.910   4.540   4.501  0.3049  0.3822 -0.5238
   20TAL   C10032318   4.790   4.469   4.447  0.2521  0.2886  0.0065
   21HTM   C10132319   5.293   4.277   4.499 -0.0256  0.0257  0.2678
   21HTM   C10232320   5.273   4.230   4.373  0.3552 -0.4480  0.3846
   21HTM   C10332321   5.151   4.157   4.356  0.4938 -0.6697  0.3331
   21HTM   C10432322   5.076   4.148   4.470  0.2183 -0.3652  0.1769
   21HTM    S1132323   5.156   4.233   4.608 -0.2410  0.2299  0.0819
   22TAL   C10532324   5.126   4.106   4.220  0.1443  0.4761  0.3947
   22TAL   C10632325   5.076   4.191   4.102 -0.6313 -0.3861  0.3200
   22TAL   C10732326   4.977   4.303   4.125 -0.1782 -0.0357  0.2340
   22TAL   C10832327   4.871   4.309   4.018  0.8878  0.7589 -0.4013
   22TAL   C10932328   4.763   4.394   4.074 -0.1431  0.0671 -0.0921
   22TAL   C11032329   4.666   4.444   3.972  0.1101 -0.2105  0.7122
   23HTM   C11132330   4.943   4.094   4.483 -0.1324  0.1026 -0.2360
   23HTM   C11232331   4.878   4.087   4.603  0.1490  0.1335 -0.0796
   23HTM   C11332332   4.736   4.070   4.590  0.1476 -0.1154  0.2630
   23HTM   C11432333   4.692   4.064   4.461 -0.1355 -0.3366  0.3678
   23HTM    S1232334   4.829   4.079   4.344 -0.4238 -0.2467  0.0396
   24TAL   C11532335   4.649   4.052   4.722  0.1613 -0.2402  0.6618
   24TAL   C11632336   4.567   4.176   4.770  0.1879  0.1847 -0.0658
   24TAL   C11732337   4.512   4.289   4.671 -0.0373  0.5400  0.2043
   24TAL   C11832338   4.461   4.417   4.752  0.3161 -0.0018  0.5947
   24TAL   C11932339   4.390   4.524   4.668  0.4567 -0.0422 -0.2539
   24TAL   C12032340   4.258   4.498   4.605  1.1155 -0.5925  0.2696
   25HTM   C12132341   4.556   4.073   4.415  0.1476  0.0311  0.2152
   25HTM   C12232342   4.448   3.993   4.435  0.1957  0.0641  0.6247
   25HTM   C12332343   4.326   4.045   4.378  0.0622 -0.0558  0.7992
   25HTM   C12432344   4.342   4.165   4.315 -0.0888 -0.1807  0.5228
   25HTM    S1332345   4.513   4.222   4.323 -0.0732 -0.1560  0.0165
   26TAL   C12532346   4.190   3.973   4.384  0.2955  0.3479 -0.1495
   26TAL   C12632347   4.178   3.834   4.318  0.3230 -0.4241 -0.4278
   26TAL   C12732348   4.167   3.842   4.167 -0.4863 -0.1468  0.2356
   26TAL   C12832349   4.161   3.710   4.083  0.0561  0.8201  0.4319
   26TAL   C12932350   4.058   3.607   4.132  0.4229  0.3611  0.6966
   26TAL   C13032351   3.915   3.656   4.127  0.0942  0.2783  0.2466
   27HTM   C13132352   4.260   4.264   4.256  0.3507  0.0922  0.7297
   27HTM   C13232353   4.138   4.247   4.197  0.3796 -0.3304  0.7880
   27HTM   C13332354   4.081   4.369   4.146  0.1748 -0.6144  0.3362
   27HTM   C13432355   4.160   4.479   4.165 -0.0103 -0.4091 -0.0670
   27HTM    S1432356   4.313   4.436   4.251  0.0603  0.1639  0.0942
   28TAL   C13532357   3.951   4.360   4.060  0.0773 -0.2846 -0.7605
   28TAL   C13632358   3.827   4.393   4.142 -0.3674  0.4826  0.1150
   28TAL   C13732359   3.709   4.398   4.052  0.5671 -0.6172  0.6990
   28TAL   C13832360   3.583   4.458   4.114 -0.2231  0.5637 -0.2416
   28TAL   C13932361   3.508   4.362   4.206  0.3131  0.1762 -0.5482
   28TAL   C14032362   3.369   4.399   4.220 -0.4289  0.4352  0.1316
   29HTM   C14132363   4.135   4.618   4.142  0.1705  0.1339 -0.0431
   29HTM   C14232364   4.137   4.689   4.026  0.0744  0.3171  0.0665
   29HTM   C14332365   4.155   4.830   4.045  0.0663  0.2906  0.2761
   29HTM   C14432366   4.166   4.867   4.175  0.1560  0.0875  0.3266
   29HTM    S1532367   4.155   4.725   4.286  0.2588 -0.0879  0.1112
   30TAL   C14532368   4.166   4.919   3.924 -0.3573 -0.0036  0.0113
   30TAL   C14632369   4.292   4.905   3.837 -0.1149  0.0653 -0.0548
   30TAL   C14732370   4.427   4.916   3.908 -0.0947 -0.4147 -0.3634
   30TAL   C14832371   4.548   4.880   3.824 -0.7200 -0.5004  0.0806
   30TAL   C14932372   4.666   4.870   3.920  0.5394  0.2857 -0.0121
   30TAL   C15032373   4.793   4.933   3.869  0.0967  0.2384  0.1727
   31HTM   C15132374   4.189   4.999   4.229  0.0887 -0.0027 -0.3712
   31HTM   C15232375   4.265   5.032   4.338  0.2704 -0.1407 -0.4570
   31HTM   C15332376   4.261   5.171   4.372  0.2699 -0.1967 -0.2270
   31HTM   C15432377   4.181   5.245   4.290  0.0876 -0.1015  0.0347
   31HTM    S1632378   4.105   5.144   4.162 -0.0984  0.0676  0.0103
   32TAL   C15532379   4.358   5.226   4.473  0.3934  0.1265 -0.1095
   32TAL   C15632380   4.432   5.131   4.569 -0.8154  1.0369  0.3486
   32TAL   C15732381   4.491   5.197   4.688 -0.2065  0.2159  0.1092
   32TAL   C15832382   4.610   5.297   4.659  0.0161  0.0387 -0.1144
   32TAL   C15932383   4.699   5.319   4.783  0.0622 -0.4210  0.3662
   32TAL   C16032384   4.833   5.377   4.749  0.1135 -0.1411 -0.2246
   33HTM   C16132385   4.140   5.384   4.293  0.1330  0.1123  0.7214
   33HTM   C16232386   4.021   5.435   4.336  0.3669  0.3390  1.1127
   33HTM   C16332387   4.013   5.578   4.330  0.3865  0.3169  0.5217
   33HTM   C16432388   4.126   5.637   4.282  0.1678  0.0730 -0.3201
   33HTM    S1732389   4.253   5.515   4.241 -0.0818 -0.1487 -0.4329
   34TAL   C16532390   3.879   5.643   4.352  0.2030 -0.3854 -0.2638
   34TAL   C16632391   3.751   5.566   4.314 -0.2443 -0.1079  0.1350
   34TAL   C16732392   3.626   5.638   4.358  0.1236  0.2727 -0.2699
   34TAL   C16832393   3.508   5.531   4.358 -0.4690 -0.1877 -0.4012
   34TAL   C16932394   3.376   5.606   4.385  0.9977  0.1496 -0.0616
   34TAL   C17032395   3.240   5.546   4.397  0.1973 -0.2073  0.2421
   35HTM   C17132396   4.158   5.781   4.258  0.0061  0.1494  0.5283
   35HTM   C17232397   4.281   5.836   4.241  0.1006 -0.0064  0.7107
   35HTM   C17332398   4.280   5.980   4.230  0.2661 -0.0284  0.3963
   35HTM   C17432399   4.155   6.034   4.238  0.2975  0.1108 -0.0261
   35HTM    S1832400   4.029   5.907   4.261  0.1194  0.2817 -0.0593
   36TAL   C17532401   4.408   6.060   4.205 -0.5645  0.4103 -0.8601
   36TAL   C17632402   4.481   6.051   4.071 -0.1202  0.0306 -0.0321
   36TAL   C17732403   4.614   6.122   4.071  0.3031 -0.2700 -0.0037
   36TAL   C17832404   4.723   6.054   4.152 -0.1975  0.5295 -0.5529
   36TAL   C17932405   4.842   6.142   4.155  0.2425  0.2637  0.4126
   36TAL   C18032406   4.971   6.091   4.213 -0.4045 -0.9671 -0.1862
   37HTM   C18132407   4.107   6.174   4.249 -0.0695 -0.1874 -0.4050
   37HTM   C18232408   3.986   6.220   4.206 -0.1009 -0.0410 -0.1628
   37HTM   C18332409   3.966   6.360   4.231 -0.0126 -0.0863  0.1688
   37HTM   C18432410   4.071   6.421   4.293  0.0860 -0.2666  0.1787
   37HTM    S1932411   4.205   6.305   4.325  0.0753 -0.3949 -0.2324
   38TAL   C18532412   3.846   6.434   4.180 -0.0729 -0.5193 -0.2721
   38TAL   C18632413   3.710   6.414   4.247  0.0089 -0.5713  0.1257
   38TAL   C18732414   3.662   6.547   4.306 -0.0389 -0.1418 -0.0160
   38TAL   C18832415   3.536   6.522   4.383  0.0070 -0.0945 -0.1832
   38TAL   C18932416   3.497   6.636   4.478  0.5379  0.0517 -0.8931
   38TAL   C19032417   3.347   6.634   4.518  0.4240 -0.0883 -0.0576
   39HTM   C19132418   4.087   6.554   4.341  0.1841  0.1091  0.1279
   39HTM   C19232419   4.199   6.630   4.328  0.1953  0.1051  0.1976
   39HTM   C19332420   4.191   6.757   4.394  0.1411  0.1247  0.1543
   39HTM   C19432421   4.073   6.779   4.458  0.0882  0.1432  0.0507
   39HTM    S2032422   3.961   6.639   4.439  0.1037  0.1381  0.0005
   40TAL   C19532423   4.312   6.857   4.387  0.1231 -0.3550  0.6259
   40TAL   C19632424   4.428   6.848   4.488  0.6155 -0.5819  0.3083
   40TAL   C19732425   4.507   6.718   4.503  0.0847 -0.6287  0.6038
   40TAL   C19832426   4.533   6.641   4.372  0.5991 -0.1119  0.4388
   40TAL   C19932427   4.621   6.521   4.388  0.3681  0.7602 -0.5054
   40TAL   C20032428   4.639   6.438   4.256  0.1442 -0.1171 -0.8848
   41HTM   C20132429   4.020   6.884   4.539 -0.2579  0.1893  0.2860
   41HTM   C20232430   3.895   6.890   4.593 -0.0852 -0.0160  0.7138
   41HTM   C20332431   3.876   7.000   4.684  0.0573 -0.0668  0.8044
   41HTM   C20432432   3.987   7.077   4.700 -0.0067  0.0998  0.4458
   41HTM    S2132433   4.125   7.018   4.600 -0.2537  0.3351 -0.0377
   42TAL   C20532434   3.745   7.040   4.748 -0.6838  0.3988  0.5048
   42TAL   C20632435   3.613   7.052   4.672 -0.2453  0.5059  0.4223
   42TAL   C20732436   3.511   7.144   4.738 -0.6795  0.6787 -0.8867
   42TAL   C20832437   3.557   7.278   4.800 -0.0773  0.3808 -0.6794
   42TAL   C20932438   3.453   7.377   4.841  0.3858 -0.3010 -0.3161
   42TAL   C21032439   3.356   7.364   4.957 -0.5211  0.9294  0.0374
   43HTM   C21132440   4.019   7.200   4.768  0.4935  0.1165 -0.0598
   43HTM   C21232441   4.134   7.271   4.752  0.6399  0.0575  0.6995
   43HTM   C21332442   4.147   7.382   4.843  0.2437 -0.1376  0.9956
   43HTM   C21432443   4.042   7.395   4.928 -0.2048 -0.2273  0.4624
   43HTM    S2232444   3.917   7.268   4.900 -0.1612 -0.0716 -0.4626
   44TAL   C21532445   4.264   7.481   4.839  0.4725 -0.1364  0.3682
   44TAL   C21632446   4.394   7.430   4.901 -0.1340 -0.0289 -0.0916
   44TAL   C21732447   4.509   7.532   4.920 -0.1673  0.3410 -0.2488
   44TAL   C21832448   4.476   7.655   5.006 -0.3870  0.5814 -0.7122
   44TAL   C21932449   4.597   7.748   5.029  0.7335  0.7244 -0.0744
   44TAL   C22032450   4.556   7.863   5.118  0.2124  0.2897  0.0871
   45HTM   C22132451   4.007   7.490   5.039  0.0643  0.0414 -0.2135
   45HTM   C22232452   3.888   7.496   5.105 -0.0135 -0.1147 -0.3402
   45HTM   C22332453   3.884   7.597   5.208 -0.2863 -0.0608 -0.4044
   45HTM   C22432454   3.999   7.668   5.220 -0.4162  0.1369 -0.3272
   45HTM    S2332455   4.124   7.613   5.102 -0.2027  0.2710 -0.1655
   46TAL   C22532456   3.761   7.622   5.291  0.1015  0.6017 -0.3993
   46TAL   C22632457   3.658   7.512   5.306 -0.0648  0.8734 -0.2841
   46TAL   C22732458   3.529   7.534   5.387 -0.7390  0.0471  0.3506
   46TAL   C22832459   3.441   7.405   5.403 -0.2879  0.3588  0.2729
   46TAL   C22932460   3.304   7.427   5.450 -0.5413 -0.0945  0.2112
   46TAL   C23032461   3.217   7.301   5.443 -0.0329 -0.7353 -0.3748
   47HTM   C23132462   4.039   7.770   5.311  0.0152 -0.6348 -0.1135
   47HTM   C23232463   4.102   7.883   5.268  0.4494 -0.9043 -0.2027
   47HTM   C23332464   4.116   7.984   5.370  0.5169 -0.7408 -0.3734
   47HTM   C23432465   4.064   7.947   5.490  0.1343 -0.3460 -0.4142
   47HTM    S2432466   3.993   7.781   5.485 -0.3449 -0.1491 -0.2391
   48TAL   C23532467   4.178   8.118   5.340  0.3486 -0.2434 -0.8334
   48TAL   C23632468   4.235   8.222   5.446 -0.2506  0.0249  0.0444
   48TAL   C23732469   4.336   8.170   5.548  0.0998  0.3227 -0.2151
   48TAL   C23832470   4.440   8.074   5.498 -0.0621 -0.7722  0.4514
   48TAL   C23932471   4.564   8.090   5.585 -0.4927 -0.2113 -0.3009
   48TAL   C24032472   4.676   8.022   5.525  0.5180 -0.3417 -0.1748
    1HTM     C132473   2.460   6.630   1.528 -0.1718  0.0491 -0.1288
    1HTM     C232474   2.363   6.659   1.620 -0.1290  0.0911 -0.0970
    1HTM     C332475   2.333   6.550   1.709 -0.0947  0.1287 -0.0392
    1HTM     C432476   2.407   6.438   1.685 -0.1112  0.1156 -0.0271
    1HTM     S132477   2.521   6.461   1.547 -0.1718  0.0534 -0.0880
    2TAL     C532478   2.219   6.556   1.815 -0.0417  0.4740 -0.0996
    2TAL     C632479   2.186   6.689   1.872 -0.7662  0.0915  0.0663
    2TAL     C732480   2.072   6.690   1.972  0.1620  0.0388 -0.2040
    2TAL     C832481   2.101   6.645   2.119 -0.0232 -0.2572  0.4154
    2TAL     C932482   2.197   6.735   2.200 -0.1747  0.9554 -0.8273
    2TAL    C1032483   2.217   6.687   2.346 -0.2545 -0.3762  0.1727
    3HTM    C1132484   2.417   6.312   1.761 -0.0000 -0.0456  0.7346
    3HTM    C1232485   2.314   6.245   1.819  0.2179  0.0076  1.1866
    3HTM    C1332486   2.351   6.115   1.871  0.3660 -0.0334  0.9793
    3HTM    C1432487   2.482   6.084   1.852  0.2607 -0.1176  0.3692
    3HTM     S232488   2.570   6.217   1.767 -0.0357 -0.1524  0.0065
    4TAL    C1532489   2.247   6.028   1.937 -0.0945  0.5958 -0.3330
    4TAL    C1632490   2.112   6.088   1.970 -0.2543 -0.1129 -0.1050
    4TAL    C1732491   2.027   6.026   2.083 -0.3464 -0.1848  0.0068
    4TAL    C1832492   1.888   6.078   2.096 -0.1462 -0.0917  0.3859
    4TAL    C1932493   1.823   6.026   2.225  0.2066  0.5376  0.2567
    4TAL    C2032494   1.677   6.067   2.226  0.0177 -0.4771 -0.1392
    5HTM    C2132495   2.557   5.971   1.888 -0.1455  0.1103 -0.1981
    5HTM    C2232496   2.525   5.870   1.974 -0.3175 -0.1075 -0.5153
    5HTM    C2332497   2.637   5.786   2.007 -0.3719 -0.1588 -0.4627
    5HTM    C2432498   2.754   5.822   1.947 -0.2413  0.0198 -0.1054
    5HTM     S332499   2.731   5.968   1.842 -0.0380  0.2685  0.1947
    6TAL    C2532500   2.628   5.672   2.106 -0.2980  0.3052  1.0593
    6TAL    C2632501   2.503   5.595   2.131 -0.9427  0.3689 -0.0629
    6TAL    C2732502   2.444   5.525   2.013  0.1298 -0.5310  0.8923
    6TAL    C2832503   2.300   5.481   2.024  0.7271  0.2609 -0.0184
    6TAL    C2932504   2.185   5.586   2.038 -0.2886  0.5910  0.7580
    6TAL    C3032505   2.164   5.673   1.916 -0.2049 -0.0078  0.7898
    7HTM    C3132506   2.894   5.786   1.982 -0.2593  0.1266  0.4154
    7HTM    C3232507   2.990   5.882   1.992 -0.3610  0.2007  0.6893
    7HTM    C3332508   3.122   5.830   2.018 -0.3035  0.2646  0.5295
    7HTM    C3432509   3.126   5.694   2.027 -0.1583  0.2396  0.1339
    7HTM     S432510   2.963   5.621   2.004 -0.0818  0.1323 -0.0693
    8TAL    C3532511   3.241   5.922   2.045 -0.0298  0.6839 -0.2506
    8TAL    C3632512   3.208   6.053   2.124 -0.7297 -0.7682  0.1934
    8TAL    C3732513   3.319   6.151   2.105 -0.3514 -0.5540 -0.0384
    8TAL    C3832514   3.301   6.305   2.131 -0.0753  0.0839  0.1359
    8TAL    C3932515   3.181   6.381   2.085 -0.1426  0.4731  0.3860
    8TAL    C4032516   3.154   6.384   1.933 -0.5111  0.3658  0.3926
    9HTM    C4132517   3.233   5.598   2.051  0.0468 -0.0074  0.1018
    9HTM    C4232518   3.228   5.464   2.027  0.2176  0.1307 -0.7433
    9HTM    C4332519   3.355   5.398   2.042  0.2800  0.1767 -1.0558
    9HTM    C4432520   3.457   5.482   2.077  0.1570  0.0735 -0.4494
    9HTM     S532521   3.400   5.652   2.094 -0.0490 -0.0911  0.5718
   10TAL    C4532522   3.373   5.247   2.011  0.5870 -0.3538  0.2557
   10TAL    C4632523   3.254   5.160   1.977  0.1510  0.3183  0.4095
   10TAL    C4732524   3.164   5.100   2.089 -0.1434  0.4907  0.6760
   10TAL    C4832525   3.067   5.014   2.018  0.8422  0.2869 -0.4220
   10TAL    C4932526   3.008   4.916   2.117  0.4498 -0.1209 -0.2734
   10TAL    C5032527   2.915   4.819   2.055  0.5479  0.7933  0.5196
   11HTM    C5132528   3.597   5.466   2.103  0.0968  0.0666  0.2151
   11HTM    C5232529   3.685   5.569   2.122  0.2584 -0.1953  0.9197
   11HTM    C5332530   3.823   5.531   2.112  0.2062 -0.4163  1.0396
   11HTM    C5432531   3.841   5.399   2.085  0.0051 -0.3229  0.4265
   11HTM     S632532   3.684   5.312   2.071 -0.1353  0.0542 -0.3561
   12TAL    C5532533   3.914   5.649   2.117  0.1210  0.2052  0.2902
   12TAL    C5632534   4.018   5.656   2.225  0.1262  0.1626  0.0122
   12TAL    C5732535   4.102   5.776   2.225 -0.8441  0.4201  0.3337
   12TAL    C5832536   4.184   5.783   2.095  0.2919 -0.2537  0.5333
   12TAL    C5932537   4.285   5.891   2.090 -0.5109  0.0899 -0.4809
   12TAL    C6032538   4.369   5.891   1.965 -0.0333  0.4832  0.0211
   13HTM    C6132539   3.964   5.341   2.043  0.3335  0.1239 -0.1528
   13HTM    C6232540   4.093   5.373   2.073  0.4280  0.0815 -0.5107
   13HTM    C6332541   4.189   5.312   1.986  0.1776 -0.1237 -0.6456
   13HTM    C6432542   4.134   5.233   1.890 -0.1074 -0.2380 -0.3905
   13HTM     S732543   3.954   5.230   1.902 -0.0821 -0.0934  0.0430
   14TAL    C6532544   4.334   5.348   1.996 -0.3321  0.0805  0.0679
   14TAL    C6632545   4.374   5.436   1.881 -0.2031 -0.1187 -0.1397
   14TAL    C6732546   4.521   5.477   1.888 -0.3710 -0.4482 -0.5409
   14TAL    C6832547   4.564   5.535   1.752 -0.7209  0.9811  0.6650
   14TAL    C6932548   4.702   5.590   1.748 -0.1717 -0.5144  0.2226
   14TAL    C7032549   4.770   5.600   1.616  0.3249  0.0361 -0.0432
   15HTM    C7132550   4.203   5.151   1.796  0.2224  0.0099 -0.1250
   15HTM    C7232551   4.300   5.057   1.815  0.0763 -0.1473 -0.1623
   15HTM    C7332552   4.335   4.985   1.695  0.0033 -0.1197 -0.2007
   15HTM    C7432553   4.266   5.026   1.584  0.0937  0.0586 -0.1927
   15HTM     S832554   4.150   5.158   1.623  0.2796  0.2064 -0.1356
   16TAL    C7532555   4.435   4.869   1.705  0.2963  0.0803 -0.2075
   16TAL    C7632556   4.384   4.731   1.757  0.4146  0.0382  0.0237
   16TAL    C7732557   4.261   4.675   1.687 -0.8545 -0.3932 -0.6732
   16TAL    C7832558   4.235   4.531   1.720  0.2987 -0.4075  0.4324
   16TAL    C7932559   4.112   4.469   1.648 -0.0739  0.0709  0.6356
   16TAL    C8032560   4.098   4.329   1.702 -0.0767 -0.1992 -0.1368
   17HTM    C8132561   4.260   4.959   1.457  0.5284 -0.3833 -0.2362
   17HTM    C8232562   4.350   4.957   1.354  0.4237 -0.5419 -0.3241
   17HTM    C8332563   4.307   4.876   1.243  0.1590 -0.4430 -0.2958
   17HTM    C8432564   4.185   4.818   1.260  0.0619 -0.2093 -0.1862
   17HTM     S932565   4.114   4.860   1.420  0.2991 -0.0947 -0.1098
   18TAL    C8532566   4.390   4.874   1.118  0.0817  0.4012 -0.1795
   18TAL    C8632567   4.499   4.768   1.117 -0.0885 -0.2626 -0.1151
   18TAL    C8732568   4.581   4.764   0.994  0.2686  0.4998 -0.0787
   18TAL    C8832569   4.712   4.684   1.005  0.2325 -0.5120 -0.4885
   18TAL    C8932570   4.780   4.654   0.878 -0.2276 -0.5312 -0.2021
   18TAL    C9032571   4.919   4.602   0.919 -0.2598 -0.0174  0.3798
   19HTM    C9132572   4.103   4.734   1.180  0.1809 -0.0079 -0.2051
   19HTM    C9232573   4.104   4.729   1.043 -0.1538  0.1116 -0.2145
   19HTM    C9332574   4.011   4.636   0.987 -0.3145  0.1831 -0.0679
   19HTM    C9432575   3.937   4.569   1.080 -0.1021  0.1186  0.0533
   19HTM    S1032576   3.981   4.619   1.248  0.3201 -0.0392 -0.0089
   20TAL    C9532577   4.006   4.635   0.830 -0.3140 -0.4801  0.5791
   20TAL    C9632578   4.123   4.694   0.738  0.1643 -0.0079 -0.1607
   20TAL    C9732579   4.270   4.647   0.746 -0.0162  0.0616 -0.0433
   20TAL    C9832580   4.315   4.511   0.792 -0.4995  0.2938 -0.3507
   20TAL    C9932581   4.450   4.481   0.718  0.4953 -0.2402 -0.2416
   20TAL   C10032582   4.517   4.355   0.746  0.8249  0.6931 -0.3046
   21HTM   C10132583   3.833   4.477   1.065 -0.0956 -0.3552  0.4999
   21HTM   C10232584   3.699   4.484   1.089 -0.1675 -0.3629  0.1032
   21HTM   C10332585   3.626   4.370   1.040 -0.0942 -0.1123 -0.6036
   21HTM   C10432586   3.704   4.277   0.979  0.0337  0.0867 -0.7459
   21HTM    S1132587   3.878   4.326   0.978  0.0718 -0.0277  0.0076
   22TAL   C10532588   3.479   4.363   1.044  0.6930  0.6611 -0.7518
   22TAL   C10632589   3.393   4.485   1.074  0.0322  0.1438 -0.1649
   22TAL   C10732590   3.250   4.457   1.044 -0.1588  0.5190  0.5686
   22TAL   C10832591   3.155   4.559   1.098 -0.2792 -0.5884 -0.5020
   22TAL   C10932592   3.010   4.526   1.052 -0.5513 -0.3854 -0.3299
   22TAL   C11032593   2.914   4.647   1.071  0.2871  0.6392 -0.0471
   23HTM   C11132594   3.675   4.143   0.921 -0.1829 -0.5681  0.4228
   23HTM   C11232595   3.563   4.095   0.860 -0.0564 -0.7594  0.3383
   23HTM   C11332596   3.584   3.973   0.787  0.3371 -0.4019 -0.1457
   23HTM   C11432597   3.713   3.928   0.791  0.5105  0.0613 -0.4303
   23HTM    S1232598   3.818   4.037   0.889  0.1879  0.0826 -0.1065
   24TAL   C11532599   3.460   3.913   0.719  0.2806 -0.6041  0.6655
   24TAL   C11632600   3.437   3.950   0.575 -0.2567  0.1810 -0.4181
   24TAL   C11732601   3.327   3.879   0.500 -0.0210 -0.1309 -0.0634
   24TAL   C11832602   3.188   3.881   0.567 -0.0931  0.4320  0.2109
   24TAL   C11932603   3.065   3.830   0.486  0.5134 -0.1615  0.3610
   24TAL   C12032604   2.936   3.814   0.572 -0.2951  0.1855  0.2452
   25HTM   C12132605   3.774   3.810   0.733  0.0864  0.1853 -0.0421
   25HTM   C12232606   3.719   3.687   0.714 -0.0293  0.2022  0.1889
   25HTM   C12332607   3.813   3.587   0.671 -0.1453  0.0596  0.2648
   25HTM   C12432608   3.940   3.634   0.657 -0.1182 -0.0659  0.0916
   25HTM    S1332609   3.951   3.810   0.697  0.0573 -0.0133 -0.1830
   26TAL   C12532610   3.773   3.442   0.670 -0.0939  1.0317  0.4324
   26TAL   C12632611   3.629   3.404   0.705 -0.1283  0.1694 -0.0011
   26TAL   C12732612   3.608   3.256   0.727 -0.4063  0.2084 -0.2556
   26TAL   C12832613   3.459   3.218   0.736 -0.5127 -0.1741 -0.1297
   26TAL   C12932614   3.426   3.071   0.765 -0.1283 -0.6725 -0.0298
   26TAL   C13032615   3.281   3.050   0.769  0.1074 -0.1802  0.5814
   27HTM   C13132616   4.056   3.562   0.603  0.2999 -0.4997 -0.1464
   27HTM   C13232617   4.060   3.481   0.494  0.6568 -0.4560 -0.1674
   27HTM   C13332618   4.190   3.426   0.467  0.8144 -0.1888  0.0481
   27HTM   C13432619   4.286   3.466   0.555  0.5775 -0.0287  0.2333
   27HTM    S1432620   4.218   3.576   0.681  0.1339 -0.2044  0.1494
   28TAL   C13532621   4.216   3.344   0.342  0.1520  0.2524 -0.5646
   28TAL   C13632622   4.180   3.404   0.208 -0.3155 -0.2933  0.3614
   28TAL   C13732623   4.037   3.390   0.169  0.4468  0.3428  0.4738
   28TAL   C13832624   3.989   3.254   0.117 -0.7849  0.3957  0.5712
   28TAL   C13932625   3.844   3.224   0.143 -0.5940 -0.0911 -0.2295
   28TAL   C14032626   3.813   3.082   0.100 -0.1390 -0.4501 -0.1220
   29HTM   C14132627   4.427   3.427   0.568  0.1192 -0.2070  0.1576
   29HTM   C14232628   4.472   3.299   0.573  0.1500 -0.1630  1.2114
   29HTM   C14332629   4.614   3.288   0.596  0.1056  0.0550  1.5801
   29HTM   C14432630   4.676   3.409   0.609  0.0411  0.1772  0.8074
   29HTM    S1532631   4.560   3.546   0.593  0.0305  0.0252 -0.4556
   30TAL   C14532632   4.695   3.153   0.601 -0.0281  0.1548 -0.2017
   30TAL   C14632633   4.613   3.025   0.576 -0.4060 -0.5938  0.9061
   30TAL   C14732634   4.713   2.903   0.578  0.2650  0.5665  0.6990
   30TAL   C14832635   4.654   2.762   0.561  0.2274  1.0981 -0.4515
   30TAL   C14932636   4.605   2.729   0.426 -0.0349 -0.4733 -0.5145
   30TAL   C15032637   4.518   2.608   0.425 -0.0228 -0.2535 -0.0783
   31HTM   C15132638   4.817   3.442   0.643  0.0509 -0.0677 -0.5680
   31HTM   C15232639   4.856   3.551   0.716 -0.0322 -0.0623 -0.5327
   31HTM   C15332640   4.998   3.565   0.728 -0.0451 -0.0414 -0.4025
   31HTM   C15432641   5.069   3.467   0.664  0.0276 -0.0308 -0.3386
   31HTM    S1632642   4.960   3.349   0.583  0.1192 -0.0467 -0.4386
   32TAL   C15532643   5.055   3.685   0.798 -0.2201  0.1434  0.6117
   32TAL   C15632644   4.966   3.804   0.832  0.4043  0.3703 -0.1091
   32TAL   C15732645   4.909   3.882   0.712 -0.4397 -0.2257 -0.0759
   32TAL   C15832646   4.801   3.991   0.741  0.7698 -0.1180 -0.2018
   32TAL   C15932647   4.784   4.106   0.641  0.6094  0.2310  0.6818
   32TAL   C16032648   4.907   4.206   0.646  0.0340 -0.3883 -0.7099
   33HTM   C16132649   5.212   3.434   0.677  0.0556  0.1212  0.0455
   33HTM   C16232650   5.262   3.308   0.683 -0.1302  0.0697  0.4986
   33HTM   C16332651   5.406   3.301   0.675 -0.1478 -0.1811  0.3799
   33HTM   C16432652   5.465   3.423   0.662  0.0249 -0.3206 -0.1635
   33HTM    S1732653   5.344   3.556   0.659  0.2242 -0.1448 -0.5708
   34TAL   C16532654   5.463   3.160   0.674 -0.4889 -0.4111 -0.4879
   34TAL   C16632655   5.446   3.055   0.558 -0.0416  0.5796 -0.0266
   34TAL   C16732656   5.483   2.918   0.606  0.7117  0.3115  0.5418
   34TAL   C16832657   5.445   2.803   0.517  0.6101 -0.7888  0.5770
   34TAL   C16932658   5.511   2.671   0.561 -0.2275 -0.0287  0.2345
   34TAL   C17032659   5.452   2.554   0.491  0.4339  0.3804  0.6602
   35HTM   C17132660   5.601   3.440   0.629 -0.1708 -0.0859  0.0116
   35HTM   C17232661   5.716   3.379   0.670 -0.2730 -0.2450  0.0602
   35HTM   C17332662   5.833   3.420   0.597 -0.1581 -0.2791  0.2249
   35HTM   C17432663   5.807   3.513   0.501  0.0324 -0.1463  0.3019
   35HTM    S1832664   5.632   3.556   0.494  0.0811  0.0337  0.1714
   36TAL   C17532665   5.971   3.358   0.621  0.1103  0.1161  0.1596
   36TAL   C17632666   6.013   3.237   0.539  0.2215 -0.8773  0.0919
   36TAL   C17732667   5.913   3.120   0.551 -0.1560  0.3124  0.5157
   36TAL   C17832668   5.967   2.992   0.487  0.0412 -0.1500  0.0587
   36TAL   C17932669   5.864   2.876   0.489  0.4813  0.1576  0.0387
   36TAL   C18032670   5.896   2.751   0.411 -0.2972 -0.2581 -0.5811
   37HTM   C18132671   5.895   3.581   0.403  0.4336 -0.3051  0.1424
   37HTM   C18232672   5.895   3.560   0.268  0.7863 -0.7194  0.2044
   37HTM   C18332673   5.982   3.649   0.196  0.6354 -0.6423  0.1160
   37HTM   C18432674   6.048   3.737   0.275  0.1670 -0.1695 -0.0134
   37HTM    S1932675   6.005   3.715   0.449 -0.1209  0.2181 -0.0338
   38TAL   C18532676   5.988   3.653   0.045  0.1918  0.0191 -0.3939
   38TAL   C18632677   5.844   3.649  -0.017  0.2600  0.4228  0.3086
   38TAL   C18732678   5.761   3.780  -0.020  0.6965  0.8135  0.7397
   38TAL   C18832679   5.714   3.852   0.100 -0.0857 -0.0782 -0.2982
   38TAL   C18932680   5.603   3.787   0.185  0.4009  0.5268 -0.7290
   38TAL   C19032681   5.575   3.856   0.313 -0.1941  0.4125 -0.5612
   39HTM   C19132682   6.127   3.847   0.233  0.1267 -0.0374  0.0494
   39HTM   C19232683   6.075   3.968   0.197  0.2055  0.1132  0.4417
   39HTM   C19332684   6.170   4.056   0.135  0.2441  0.2241  0.6578
   39HTM   C19432685   6.295   4.002   0.123  0.1948  0.1578  0.4303
   39HTM    S2032686   6.302   3.835   0.190  0.0947 -0.0512 -0.0785
   40TAL   C19532687   6.122   4.192   0.085 -0.4801 -0.5762 -0.0514
   40TAL   C19632688   5.992   4.261   0.129 -0.1928  0.2161 -0.1058
   40TAL   C19732689   5.867   4.181   0.103  0.0570 -0.8612  0.6192
   40TAL   C19832690   5.740   4.237   0.167 -0.5665  0.2276  0.2579
   40TAL   C19932691   5.617   4.162   0.125 -0.3835 -0.3420  0.3339
   40TAL   C20032692   5.499   4.246   0.164 -0.2074 -0.2230 -0.2497
   41HTM   C20132693   6.422   4.050   0.075 -0.1974 -0.3574  0.2353
   41HTM   C20232694   6.453   4.181   0.051 -0.2873 -0.2987  0.4417
   41HTM   C20332695   6.587   4.201   0.005 -0.2632 -0.1197  0.5898
   41HTM   C20432696   6.660   4.087  -0.007 -0.1548 -0.0420  0.4970
   41HTM    S2132697   6.562   3.942   0.040 -0.0739 -0.1898  0.2120
   42TAL   C20532698   6.643   4.339  -0.020 -0.3232  0.2959 -0.0506
   42TAL   C20632699   6.600   4.457   0.077 -0.4423 -0.1951  0.1049
   42TAL   C20732700   6.660   4.589   0.036 -0.4254  0.1505  0.0525
   42TAL   C20832701   6.647   4.703   0.138 -0.3896 -0.0734  0.1143
   42TAL   C20932702   6.698   4.840   0.076  0.3923  0.1427  0.3225
   42TAL   C21032703   6.693   4.952   0.172  0.3976 -0.2751  0.1683
   43HTM   C21132704   6.794   4.053  -0.053 -0.3295 -0.0085 -0.1900
   43HTM   C21232705   6.893   4.132  -0.102 -0.4544  0.1943 -0.1159
   43HTM   C21332706   7.005   4.059  -0.154 -0.3304  0.4203 -0.1674
   43HTM   C21432707   6.992   3.924  -0.145 -0.1109  0.3899 -0.2795
   43HTM    S2232708   6.835   3.878  -0.069 -0.0428  0.0711 -0.3313
   44TAL   C21532709   7.129   4.123  -0.213 -0.7311 -0.2714 -0.5374
   44TAL   C21632710   7.132   4.274  -0.203 -0.2415 -0.1426 -0.0994
   44TAL   C21732711   7.264   4.345  -0.246  0.2737 -0.2202 -0.8890
   44TAL   C21832712   7.390   4.316  -0.163  0.3023  0.5789 -0.9902
   44TAL   C21932713   7.403   4.408  -0.044  0.3449  0.1208 -0.5544
   44TAL   C22032714   7.477   4.353   0.079  0.4116  0.7729 -0.1318
   45HTM   C22132715   7.081   3.820  -0.189  0.2221 -0.1399  0.3677
   45HTM   C22232716   7.215   3.814  -0.166  0.1616 -0.5075  0.6375
   45HTM   C22332717   7.278   3.696  -0.220 -0.0093 -0.5502  0.5298
   45HTM   C22432718   7.192   3.612  -0.283 -0.0790 -0.2150  0.1779
   45HTM    S2332719   7.023   3.676  -0.281  0.0669  0.1834 -0.0466
   46TAL   C22532720   7.422   3.664  -0.200 -0.0595 -0.4500  0.1223
   46TAL   C22632721   7.505   3.779  -0.230  0.6495 -0.5650  0.3354
   46TAL   C22732722   7.654   3.758  -0.235  0.0524  0.1878  0.2361
   46TAL   C22832723   7.712   3.649  -0.321 -0.1422  0.3098  0.3839
   46TAL   C22932724   7.731   3.505  -0.265  0.2093  0.0131 -0.0905
   46TAL   C23032725   7.792   3.413  -0.366  0.1884 -0.0843  0.3020
   47HTM   C23132726   7.218   3.495  -0.358 -0.2421 -0.2192  0.0962
   47HTM   C23232727   7.123   3.401  -0.386 -0.2224 -0.1626 -0.1645
   47HTM   C23332728   7.169   3.297  -0.473 -0.1154 -0.0627 -0.2289
   47HTM   C23432729   7.299   3.310  -0.512 -0.0539 -0.0434 -0.0167
   47HTM    S2432730   7.374   3.458  -0.441 -0.1267 -0.1505  0.2834
   48TAL   C23532731   7.076   3.175  -0.502  0.0317  0.8917 -0.2652
   48TAL   C23632732   7.129   3.051  -0.585 -0.5280 -0.1936 -0.2493
   48TAL   C23732733   7.093   2.918  -0.524  0.1412  0.3946  0.5347
   48TAL   C23832734   7.098   2.799  -0.620  0.5387  0.9044 -0.2919
   48TAL   C23932735   7.051   2.665  -0.564 -0.0862 -0.1908 -1.1431
   48TAL   C24032736   7.081   2.550  -0.650 -0.3994  0.1013 -0.0733
    1HTM     C132737   5.465   6.162   5.945 -0.0725  0.0282 -0.3400
    1HTM     C232738   5.430   6.290   5.977  0.0482 -0.0274  0.0222
    1HTM     C332739   5.539   6.368   6.030  0.0789 -0.3321  0.4058
    1HTM     C432740   5.656   6.300   6.040 -0.0181 -0.5089  0.3363
    1HTM     S132741   5.639   6.130   5.981 -0.1569 -0.3025 -0.2235
    2TAL     C532742   5.515   6.514   6.047  1.0139 -0.2481  0.0479
    2TAL     C632743   5.383   6.545   6.130  0.6872 -0.0074  0.7100
    2TAL     C732744   5.372   6.705   6.137  1.1801  0.2710 -0.7908
    2TAL     C832745   5.251   6.751   6.227  0.5250 -0.3679  0.7488
    2TAL     C932746   5.113   6.722   6.176  0.1763 -0.5048  0.1398
    2TAL    C1032747   5.050   6.810   6.074  0.2238 -0.4751  0.8584
    3HTM    C1132748   5.781   6.331   6.105  0.0348  0.1822 -0.3033
    3HTM    C1232749   5.895   6.257   6.113  0.1764  0.3364 -0.8414
    3HTM    C1332750   6.001   6.322   6.187  0.2084  0.1974 -0.7646
    3HTM    C1432751   5.967   6.445   6.235  0.0915 -0.0629 -0.1677
    3HTM     S232752   5.798   6.489   6.190 -0.0697 -0.1535  0.3475
    4TAL    C1532753   6.125   6.247   6.226  0.5043 -0.3745 -0.2951
    4TAL    C1632754   6.174   6.136   6.136  0.0542 -0.5697  0.7667
    4TAL    C1732755   6.314   6.115   6.174  0.3298 -0.1443 -0.5597
    4TAL    C1832756   6.397   6.010   6.111  1.4054 -0.3285 -0.1546
    4TAL    C1932757   6.536   6.015   6.157 -0.2254 -0.2720  0.1978
    4TAL    C2032758   6.611   5.896   6.091 -0.0349 -0.6104 -0.4003
    5HTM    C2132759   6.034   6.547   6.317  0.2805 -0.1505 -0.3100
    5HTM    C2232760   5.983   6.667   6.358  0.3364  0.1011 -0.9503
    5HTM    C2332761   6.057   6.728   6.465  0.1056  0.4179 -0.9699
    5HTM    C2432762   6.166   6.656   6.505 -0.1269  0.4080 -0.3438
    5HTM     S332763   6.182   6.503   6.410 -0.0711 -0.0053  0.3240
    6TAL    C2532764   6.007   6.856   6.516 -0.9897  0.4152  0.3887
    6TAL    C2632765   5.913   6.830   6.628 -0.0836  0.5792 -0.3863
    6TAL    C2732766   5.956   6.801   6.773 -0.0903 -0.5094  0.5199
    6TAL    C2832767   6.040   6.923   6.831 -0.0427 -0.1174 -0.2091
    6TAL    C2932768   6.079   6.915   6.979 -0.0852 -0.1465  0.0964
    6TAL    C3032769   6.175   7.037   7.006 -0.0163 -0.3152  0.4616
    7HTM    C3132770   6.267   6.686   6.605  0.1793 -0.1744 -0.4177
    7HTM    C3232771   6.301   6.620   6.719  0.5236 -0.4795 -0.6938
    7HTM    C3332772   6.396   6.691   6.801  0.5355 -0.5574 -0.6394
    7HTM    C3432773   6.434   6.812   6.750  0.1998 -0.3122 -0.3217
    7HTM     S432774   6.353   6.845   6.592 -0.1598  0.0390 -0.0648
    8TAL    C3532775   6.425   6.641   6.942  0.1338  0.3593 -0.2528
    8TAL    C3632776   6.511   6.510   6.950 -0.2207  0.8715 -0.0913
    8TAL    C3732777   6.657   6.542   6.936  0.7511  0.0777  0.4450
    8TAL    C3832778   6.718   6.613   7.060 -0.2586  0.4002 -0.1925
    8TAL    C3932779   6.877   6.629   7.063 -1.0084  0.2844 -0.4193
    8TAL    C4032780   6.929   6.650   7.202  0.1818 -0.6649 -0.1034
    9HTM    C4132781   6.532   6.914   6.783 -0.0847  0.1987 -0.1585
    9HTM    C4232782   6.521   7.046   6.814  0.2117  0.2902 -0.4313
    9HTM    C4332783   6.646   7.108   6.848  0.3397  0.0570 -0.4737
    9HTM    C4432784   6.753   7.024   6.842  0.1414 -0.2120 -0.2337
    9HTM     S532785   6.703   6.857   6.793 -0.2254 -0.1921  0.0672
   10TAL    C4532786   6.651   7.253   6.900 -0.0683  0.4384 -0.2790
   10TAL    C4632787   6.529   7.346   6.934 -0.5421  0.3155  0.1445
   10TAL    C4732788   6.445   7.313   7.056  0.2416  0.8813  0.2361
   10TAL    C4832789   6.345   7.411   7.103  0.2907  0.6462 -0.0468
   10TAL    C4932790   6.252   7.359   7.218 -0.1695 -0.3462  0.1491
   10TAL    C5032791   6.120   7.435   7.229 -0.1376  0.1937 -0.4421
   11HTM    C5132792   6.894   7.049   6.851 -0.3437 -0.4293 -0.5862
   11HTM    C5232793   6.973   7.160   6.851 -0.4573 -0.3479 -0.5779
   11HTM    C5332794   7.114   7.130   6.846 -0.4115 -0.2120 -0.0801
   11HTM    C5432795   7.143   6.997   6.843 -0.2632 -0.1895  0.2914
   11HTM     S632796   6.992   6.897   6.846 -0.1691 -0.3391  0.0390
   12TAL    C5532797   7.211   7.245   6.842  0.0144 -0.5932 -0.2403
   12TAL    C5632798   7.227   7.342   6.956 -0.3666 -0.7224 -0.0316
   12TAL    C5732799   7.129   7.459   6.971  0.5126  0.2396  0.0234
   12TAL    C5832800   7.100   7.496   7.112 -0.6631 -0.5566  0.2431
   12TAL    C5932801   7.035   7.401   7.210  0.0415  0.0081 -0.1883
   12TAL    C6032802   6.886   7.392   7.169 -0.0656  0.2779  0.3209
   13HTM    C6132803   7.265   6.924   6.822 -0.0443 -0.0247  0.0064
   13HTM    C6232804   7.261   6.794   6.780 -0.0498 -0.0439  0.0648
   13HTM    C6332805   7.390   6.743   6.740 -0.0298 -0.1082  0.2120
   13HTM    C6432806   7.491   6.833   6.752 -0.0092 -0.1380  0.2658
   13HTM     S732807   7.432   6.991   6.815 -0.0133 -0.0871  0.1338
   14TAL    C6532808   7.410   6.607   6.681  0.0581  0.5580  0.6691
   14TAL    C6632809   7.358   6.484   6.754  0.6622  0.0950 -0.3909
   14TAL    C6732810   7.458   6.374   6.754 -0.4523  1.0462  0.5058
   14TAL    C6832811   7.400   6.243   6.801  0.6310  0.2143 -0.7828
   14TAL    C6932812   7.520   6.152   6.810  0.2019 -0.3443 -0.0522
   14TAL    C7032813   7.500   6.027   6.890 -0.4665 -0.5323  0.0407
   15HTM    C7132814   7.628   6.822   6.703  0.1615  0.6226 -0.2675
   15HTM    C7232815   7.698   6.918   6.637  0.5541  0.3710 -0.2227
   15HTM    C7332816   7.839   6.889   6.623  0.4706 -0.1068 -0.0770
   15HTM    C7432817   7.876   6.770   6.679  0.0143 -0.2196 -0.0103
   15HTM     S832818   7.735   6.685   6.753 -0.3480  0.2729 -0.1277
   16TAL    C7532819   7.923   6.988   6.541 -0.4405 -0.1541 -0.4148
   16TAL    C7632820   7.900   7.141   6.556 -0.0044  0.6047 -0.2190
   16TAL    C7732821   7.892   7.201   6.701 -0.5247 -0.0162  0.0522
   16TAL    C7832822   8.020   7.231   6.770 -0.3708 -0.3618 -0.0675
   16TAL    C7932823   8.128   7.131   6.785  0.4037  0.3196 -0.2252
   16TAL    C8032824   8.231   7.138   6.673 -0.2700  0.1028  0.1134
   17HTM    C8132825   8.011   6.720   6.708  0.0232  0.2608  0.3964
   17HTM    C8232826   8.028   6.619   6.798  0.0634  0.1831  0.3023
   17HTM    C8332827   8.165   6.583   6.822  0.0572 -0.1085 -0.0894
   17HTM    C8432828   8.254   6.657   6.749  0.0118 -0.2529 -0.2937
   17HTM     S932829   8.170   6.778   6.645 -0.0265 -0.0299 -0.0055
   18TAL    C8532830   8.196   6.489   6.932 -0.2869 -0.0548 -0.0320
   18TAL    C8632831   8.137   6.348   6.928 -0.1261  0.0663  0.6105
   18TAL    C8732832   8.155   6.263   6.801 -0.1755  0.4143  1.3649
   18TAL    C8832833   8.091   6.126   6.806 -0.4957 -0.4085 -0.7502
   18TAL    C8932834   7.937   6.130   6.817  0.1417  0.2476 -0.2352
   18TAL    C9032835   7.877   5.995   6.835 -1.0598 -0.1671  0.2033
   19HTM    C9132836   8.402   6.663   6.760  0.0995 -0.5728 -0.6014
   19HTM    C9232837   8.483   6.773   6.773 -0.1321 -0.3855 -0.7293
   19HTM    C9332838   8.623   6.741   6.778 -0.0820 -0.1109 -0.3493
   19HTM    C9432839   8.650   6.607   6.769  0.1873 -0.0883  0.0679
   19HTM    S1032840   8.498   6.511   6.753  0.4014 -0.4157  0.0132
   20TAL    C9532841   8.723   6.856   6.771  0.0529 -0.2803  0.5623
   20TAL    C9632842   8.692   7.009   6.741 -0.9395  0.2525  0.1469
   20TAL    C9732843   8.776   7.109   6.812  0.4565  0.6094 -0.0354
   20TAL    C9832844   8.775   7.247   6.748 -0.4108 -0.3718 -0.2768
   20TAL    C9932845   8.868   7.365   6.786 -0.2624  0.0493  0.4078
   20TAL   C10032846   9.010   7.327   6.817 -0.2512  0.2691 -0.3755
   21HTM   C10132847   8.771   6.538   6.773  0.3491  0.1384 -0.2447
   21HTM   C10232848   8.898   6.588   6.772  0.4125 -0.0241 -0.2990
   21HTM   C10332849   9.000   6.486   6.769  0.2866 -0.1636  0.0200
   21HTM   C10432850   8.951   6.359   6.767  0.1275 -0.1073  0.3178
   21HTM    S1132851   8.770   6.358   6.770  0.1229  0.1281  0.2173
   22TAL   C10532852   9.147   6.520   6.777  0.2597 -0.4655 -0.6283
   22TAL   C10632853   9.216   6.644   6.849  0.4921  0.3638 -0.8594
   22TAL   C10732854   9.186   6.651   7.003 -0.4931 -0.1165 -0.0244
   22TAL   C10832855   9.241   6.769   7.079 -0.7194 -0.1937 -0.1593
   22TAL   C10932856   9.260   6.900   7.006 -0.0228 -0.1491  0.5646
   22TAL   C11032857   9.136   6.983   6.958 -0.0102  0.5851 -0.0877
   23HTM   C11132858   9.018   6.233   6.761 -0.0650 -0.1689  0.3279
   23HTM   C11232859   9.148   6.204   6.790 -0.0594 -0.1359  0.3350
   23HTM   C11332860   9.179   6.064   6.786  0.0340 -0.1101  0.0973
   23HTM   C11432861   9.073   5.985   6.755  0.0995 -0.1236 -0.0909
   23HTM    S1232862   8.924   6.083   6.727  0.0480 -0.1702  0.0182
   24TAL   C11532863   9.315   6.008   6.819  0.2033 -0.4475  0.3976
   24TAL   C11632864   9.433   6.105   6.817 -0.4335  0.0984 -0.1439
   24TAL   C11732865   9.565   6.028   6.815 -0.4612 -0.3848  0.2541
   24TAL   C11832866   9.675   6.116   6.881  0.4120  0.2018  0.1542
   24TAL   C11932867   9.819   6.070   6.842  0.2606 -0.2105 -0.3156
   24TAL   C12032868   9.909   6.098   6.966 -0.1596  0.3544  0.4584
   25HTM   C12132869   9.052   5.843   6.752 -0.0395 -0.1421 -0.3853
   25HTM   C12232870   9.109   5.747   6.674  0.0045 -0.1047 -0.3994
   25HTM   C12332871   9.042   5.620   6.681  0.1809 -0.1907 -0.2627
   25HTM   C12432872   8.934   5.619   6.763  0.2715 -0.2947 -0.1444
   25HTM    S1332873   8.907   5.780   6.840  0.1402 -0.2908 -0.1969
   26TAL   C12532874   9.083   5.493   6.610  0.6334  0.8069 -0.3201
   26TAL   C12632875   9.225   5.468   6.548 -0.7162  0.7290  0.1756
   26TAL   C12732876   9.325   5.436   6.655  0.1781  1.3306 -0.1237
   26TAL   C12832877   9.474   5.404   6.617  0.0567 -0.8527  0.3661
   26TAL   C12932878   9.555   5.525   6.557 -0.0540  0.1376 -0.3384
   26TAL   C13032879   9.558   5.645   6.653 -0.0893 -1.5897 -0.1904
   27HTM   C13132880   8.829   5.524   6.780  0.1239 -0.0604  0.2470
   27HTM   C13232881   8.825   5.403   6.843  0.2208  0.1624  0.6881
   27HTM   C13332882   8.694   5.344   6.847  0.3195 -0.0603  0.6466
   27HTM   C13432883   8.598   5.420   6.788  0.2975 -0.4533  0.1740
   27HTM    S1432884   8.665   5.573   6.721  0.1500 -0.5732 -0.2588
   28TAL   C13532885   8.662   5.219   6.917  0.2197 -0.3836  0.0249
   28TAL   C13632886   8.782   5.142   6.978  0.3696  0.6382  0.4677
   28TAL   C13732887   8.775   4.997   7.022 -0.0865  0.0740 -0.3786
   28TAL   C13832888   8.829   4.887   6.931 -0.0577  0.1717 -0.2643
   28TAL   C13932889   8.983   4.895   6.926 -0.0647 -0.1222  0.1559
   28TAL   C14032890   9.040   4.768   6.859 -0.0628  0.2588 -0.2585
   29HTM   C14132891   8.448   5.408   6.767  0.1040 -0.1315  0.2625
   29HTM   C14232892   8.371   5.513   6.726  0.1082 -0.2832 -0.1431
   29HTM   C14332893   8.230   5.483   6.723  0.1345 -0.3881 -0.3452
   29HTM   C14432894   8.200   5.356   6.762  0.1490 -0.3160 -0.0942
   29HTM    S1532895   8.348   5.263   6.805  0.1319 -0.1091  0.4215
   30TAL   C14532896   8.135   5.596   6.698 -0.1813 -0.3784  0.0821
   30TAL   C14632897   8.118   5.714   6.797  0.4386 -0.0675  0.2153
   30TAL   C14732898   8.238   5.798   6.866  0.6027  0.0697 -0.1304
   30TAL   C14832899   8.347   5.853   6.774  0.4073  0.2597 -0.2037
   30TAL   C14932900   8.453   5.908   6.869  0.4954  0.0341  0.0392
   30TAL   C15032901   8.583   5.958   6.805  0.5929 -0.0754 -0.1688
   31HTM   C15132902   8.071   5.281   6.771 -0.2647  0.1114 -0.6494
   31HTM   C15232903   7.943   5.327   6.779 -0.2809  0.0656 -0.6437
   31HTM   C15332904   7.844   5.223   6.777 -0.2227  0.0010 -0.0930
   31HTM   C15432905   7.896   5.098   6.769 -0.1621 -0.0026  0.3212
   31HTM    S1632906   8.076   5.101   6.762 -0.1742  0.0763  0.0456
   32TAL   C15532907   7.702   5.269   6.784  0.0541  0.2529 -0.3880
   32TAL   C15632908   7.645   5.328   6.913 -0.4872 -0.2233 -0.4362
   32TAL   C15732909   7.638   5.234   7.039  0.2837 -0.0130  0.3618
   32TAL   C15832910   7.539   5.121   7.035 -0.5328 -1.1130 -0.3671
   32TAL   C15932911   7.548   5.058   7.170  0.3366 -0.6605 -0.8500
   32TAL   C16032912   7.656   4.949   7.182 -0.1672  0.1772 -0.2754
   33HTM   C16132913   7.831   4.970   6.753  0.5626 -0.4724 -0.4661
   33HTM   C16232914   7.893   4.850   6.734  0.1857 -0.6683 -0.4680
   33HTM   C16332915   7.802   4.741   6.712 -0.1640 -0.4032 -0.3531
   33HTM   C16432916   7.671   4.777   6.713 -0.0532 -0.0052 -0.2634
   33HTM    S1732917   7.652   4.954   6.743  0.5052  0.0666 -0.3178
   34TAL   C16532918   7.855   4.600   6.694 -0.4490  0.0997  0.4679
   34TAL   C16632919   7.973   4.589   6.592 -0.6280  0.2744 -0.1083
   34TAL   C16732920   7.930   4.529   6.459 -0.0620  0.3096 -0.7310
   34TAL   C16832921   7.869   4.391   6.467 -0.4475  0.8376 -0.7808
   34TAL   C16932922   7.854   4.331   6.327  0.0173  0.2204  0.1555
   34TAL   C17032923   7.776   4.193   6.327  0.4697  0.4785  0.5257
   35HTM   C17132924   7.547   4.697   6.691 -0.4024 -0.1720  0.6197
   35HTM   C17232925   7.527   4.567   6.654 -0.2460 -0.1173  0.3307
   35HTM   C17332926   7.389   4.536   6.625 -0.1640 -0.1442 -0.0348
   35HTM   C17432927   7.305   4.642   6.640 -0.2579 -0.2199 -0.0247
   35HTM    S1832928   7.393   4.790   6.691 -0.4586 -0.2631  0.4510
   36TAL   C17532929   7.345   4.396   6.590  0.4890 -0.6678  0.0740
   36TAL   C17632930   7.443   4.283   6.567  0.3690  0.5036  0.0035
   36TAL   C17732931   7.382   4.153   6.511  0.2956  0.0342  1.1221
   36TAL   C17832932   7.465   4.040   6.452  0.4100  0.7067  0.2987
   36TAL   C17932933   7.375   3.932   6.406  0.1453 -0.5890 -0.1815
   36TAL   C18032934   7.460   3.841   6.327 -0.6052 -0.4316 -0.4961
   37HTM   C18132935   7.164   4.666   6.608 -0.1534 -0.1030 -0.4142
   37HTM   C18232936   7.064   4.576   6.584 -0.2675 -0.0517 -0.1378
   37HTM   C18332937   6.934   4.637   6.571 -0.3006 -0.0031  0.3946
   37HTM   C18432938   6.934   4.772   6.585 -0.2112 -0.0175  0.5247
   37HTM    S1932939   7.101   4.835   6.617 -0.0775 -0.0934 -0.0197
   38TAL   C18532940   6.807   4.550   6.545 -0.4395 -0.1104  0.2550
   38TAL   C18632941   6.805   4.418   6.462  0.7275  0.0281 -0.5769
   38TAL   C18732942   6.864   4.414   6.320 -0.1862  0.2772  0.3923
   38TAL   C18832943   6.837   4.532   6.229 -0.3026  0.0298 -0.4414
   38TAL   C18932944   6.900   4.505   6.091  0.0356  0.2817 -0.4606
   38TAL   C19032945   6.874   4.601   5.984  0.9838  0.6295  0.1051
   39HTM   C19132946   6.818   4.865   6.579 -0.0116  0.6007  0.4148
   39HTM   C19232947   6.833   4.998   6.605 -0.3419  0.6623  0.2880
   39HTM   C19332948   6.710   5.072   6.598 -0.4437  0.4408 -0.3006
   39HTM   C19432949   6.601   4.996   6.566 -0.1907  0.2104 -0.6228
   39HTM    S2032950   6.646   4.823   6.544  0.1986  0.2552 -0.2048
   40TAL   C19532951   6.724   5.223   6.614  0.2740 -0.0857 -0.1536
   40TAL   C19632952   6.788   5.313   6.506 -0.2090  0.0994  0.1683
   40TAL   C19732953   6.940   5.300   6.482 -0.6106  1.0057  0.1086
   40TAL   C19832954   7.008   5.433   6.458  0.6045  0.3511 -0.7185
   40TAL   C19932955   7.153   5.410   6.419 -0.3817  0.0559  0.0443
   40TAL   C20032956   7.233   5.537   6.439 -0.2102  0.5509 -0.2735
   41HTM   C20132957   6.461   5.029   6.561  0.3040  0.3625 -0.4350
   41HTM   C20232958   6.363   4.938   6.590  0.5133  0.1028 -0.5300
   41HTM   C20332959   6.230   4.992   6.577  0.3915 -0.1559 -0.3495
   41HTM   C20432960   6.226   5.122   6.538  0.0894 -0.0933 -0.1169
   41HTM    S2132961   6.392   5.189   6.514 -0.0660  0.3004 -0.1075
   42TAL   C20532962   6.105   4.907   6.594 -0.0861 -0.5615  0.5003
   42TAL   C20632963   6.062   4.856   6.732 -0.2760  0.0172 -0.5211
   42TAL   C20732964   6.149   4.771   6.817  0.2599  0.1167  0.0849
   42TAL   C20832965   6.188   4.628   6.775 -0.5658  0.1119 -0.6737
   42TAL   C20932966   6.312   4.567   6.845  0.0510  0.3085  0.4354
   42TAL   C21032967   6.337   4.421   6.802  0.8263 -0.4981  0.0736
   43HTM   C21132968   6.113   5.215   6.527 -0.3351  0.1586 -0.2376
   43HTM   C21232969   6.120   5.350   6.547 -0.0422  0.2136 -0.7083
   43HTM   C21332970   5.993   5.416   6.541  0.0424  0.3996 -0.4506
   43HTM   C21432971   5.888   5.333   6.517 -0.1861  0.4861  0.2160
   43HTM    S2232972   5.943   5.162   6.499 -0.5285  0.3383  0.5730
   44TAL   C21532973   5.975   5.565   6.543 -0.4899 -0.6435  0.7747
   44TAL   C21632974   6.063   5.662   6.623 -0.2560 -0.1219  0.1350
   44TAL   C21732975   5.994   5.800   6.616 -0.0697 -0.0878  0.0169
   44TAL   C21832976   6.076   5.930   6.651  0.4817 -0.7634 -0.1386
   44TAL   C21932977   6.009   6.067   6.611  1.0705  0.4854 -0.8401
   44TAL   C22032978   5.917   6.092   6.490 -0.5452 -0.5282  0.6207
   45HTM   C22132979   5.743   5.359   6.505 -0.2341  0.2996 -0.0811
   45HTM   C22232980   5.651   5.259   6.500 -0.1173  0.2062 -0.3903
   45HTM   C22332981   5.515   5.307   6.496 -0.1667  0.0618 -0.4308
   45HTM   C22432982   5.504   5.442   6.498 -0.3216  0.0449 -0.1526
   45HTM    S2332983   5.666   5.522   6.506 -0.4179  0.2118  0.1850
   46TAL   C22532984   5.404   5.200   6.498 -0.2627 -0.4157 -0.1407
   46TAL   C22632985   5.362   5.141   6.363  0.5012 -0.2972  0.0571
   46TAL   C22732986   5.252   5.048   6.383 -0.5999  0.4072 -0.5518
   46TAL   C22832987   5.211   4.984   6.253  0.3412  0.1248  0.5894
   46TAL   C22932988   5.092   4.889   6.287 -0.8478 -0.3743  0.3430
   46TAL   C23032989   5.122   4.771   6.378 -0.7302  0.0906 -0.1168
   47HTM   C23132990   5.392   5.532   6.486  0.1298  0.3669 -0.1772
   47HTM   C23232991   5.266   5.495   6.450  0.1962 -0.0210 -0.0174
   47HTM   C23332992   5.169   5.601   6.460 -0.0982 -0.2906  0.0086
   47HTM   C23432993   5.222   5.718   6.504 -0.3887 -0.1087 -0.1314
   47HTM    S2432994   5.399   5.705   6.537 -0.3131  0.4223 -0.3086
   48TAL   C23532995   5.019   5.592   6.433 -0.2028  0.4112  0.4928
   48TAL   C23632996   4.958   5.453   6.419  0.1899 -0.2668 -0.2974
   48TAL   C23732997   4.979   5.372   6.294  0.1043  0.4538 -0.0663
   48TAL   C23832998   4.879   5.256   6.277 -0.9761 -0.4010  0.0056
   48TAL   C23932999   4.896   5.194   6.140  0.2849  0.3195 -0.4731
   48TAL   C24033000   4.783   5.098   6.113  0.6835  0.2661 -0.3022
    1HTM     C133001   4.453   7.777   6.724  0.0924  0.1768 -0.0314
    1HTM     C233002   4.584   7.758   6.690  0.0927  0.0861  0.0193
    1HTM     C333003   4.616   7.622   6.656  0.0112  0.0651  0.0260
    1HTM     C433004   4.510   7.537   6.663 -0.0513  0.1392 -0.0187
    1HTM     S133005   4.360   7.623   6.715 -0.0114  0.2422 -0.0736
    2TAL     C533006   4.757   7.587   6.614 -0.4950  0.5698  0.4345
    2TAL     C633007   4.863   7.602   6.722 -0.6222  0.7165 -0.1612
    2TAL     C733008   4.907   7.737   6.762  0.0189 -1.2417 -1.1232
    2TAL     C833009   5.012   7.725   6.863 -0.2390  0.2917 -0.3519
    2TAL     C933010   4.969   7.709   7.005  0.2015 -0.0965 -0.3270
    2TAL    C1033011   5.094   7.684   7.097  0.3922  0.6465 -0.0679
    3HTM    C1133012   4.484   7.395   6.629 -0.1100  0.4402 -0.0014
    3HTM    C1233013   4.359   7.348   6.605 -0.1171  0.3932  0.1225
    3HTM    C1333014   4.355   7.209   6.571 -0.1466  0.2823  0.5748
    3HTM    C1433015   4.477   7.149   6.569 -0.1618  0.2447  0.7957
    3HTM     S233016   4.608   7.266   6.611 -0.1403  0.3474  0.4472
    4TAL    C1533017   4.223   7.151   6.526  0.1604  0.5356  0.4394
    4TAL    C1633018   4.104   7.247   6.509  0.4077 -0.3728 -0.8196
    4TAL    C1733019   3.970   7.182   6.470  0.1780 -0.2241 -0.0931
    4TAL    C1833020   3.852   7.280   6.468  0.0281 -0.3268 -0.2074
    4TAL    C1933021   3.814   7.372   6.579  0.1996 -0.0430 -0.3863
    4TAL    C2033022   3.699   7.457   6.559 -0.6322  0.5641 -0.2285
    5HTM    C2133023   4.520   7.010   6.550 -0.2069 -0.3300  0.2370
    5HTM    C2233024   4.639   6.966   6.500 -0.1955 -0.2890  0.2277
    5HTM    C2333025   4.644   6.824   6.478 -0.2213 -0.2589  0.0279
    5HTM    C2433026   4.528   6.760   6.510 -0.2523 -0.2764 -0.1159
    5HTM     S333027   4.403   6.875   6.572 -0.2515 -0.3332 -0.0088
    6TAL    C2533028   4.775   6.758   6.436 -0.2715  0.1380 -0.5715
    6TAL    C2633029   4.879   6.796   6.529 -0.8383 -0.3706 -0.0166
    6TAL    C2733030   5.012   6.713   6.541  0.0190 -0.3051  0.0139
    6TAL    C2833031   5.126   6.774   6.633  1.0844  0.0416 -0.3812
    6TAL    C2933032   5.089   6.785   6.779  0.0388  0.4957  0.5213
    6TAL    C3033033   5.196   6.854   6.861 -0.3751  0.5697 -0.2198
    7HTM    C3133034   4.482   6.616   6.514 -0.2547  0.0361  0.1343
    7HTM    C3233035   4.358   6.566   6.491 -0.2589 -0.0725  0.3912
    7HTM    C3333036   4.351   6.422   6.495 -0.1106 -0.0813  0.3374
    7HTM    C3433037   4.471   6.362   6.522  0.0068  0.0207  0.0389
    7HTM     S433038   4.602   6.484   6.543 -0.0617  0.1363 -0.1987
    8TAL    C3533039   4.217   6.346   6.475  0.0828  0.7220 -0.3398
    8TAL    C3633040   4.090   6.409   6.539  0.1352  0.1933 -0.3318
    8TAL    C3733041   3.968   6.315   6.523 -0.8215  0.1699  0.4039
    8TAL    C3833042   3.974   6.191   6.614  0.0281 -0.2186  0.1258
    8TAL    C3933043   3.867   6.091   6.615  0.4912  0.5108  0.1537
    8TAL    C4033044   3.880   5.975   6.707  0.8919  0.2487 -0.3932
    9HTM    C4133045   4.521   6.227   6.518  0.3272 -0.0643  0.0877
    9HTM    C4233046   4.648   6.177   6.520  0.1884 -0.4134  0.2928
    9HTM    C4333047   4.654   6.034   6.507 -0.1850 -0.4327  0.3138
    9HTM    C4433048   4.532   5.974   6.496 -0.3313 -0.0984  0.1251
    9HTM     S533049   4.399   6.096   6.500 -0.0058  0.2695 -0.0960
   10TAL    C4533050   4.787   5.952   6.499 -0.0236 -0.3173 -0.8120
   10TAL    C4633051   4.914   6.024   6.449 -0.0910  0.5952  0.1237
   10TAL    C4733052   4.987   6.065   6.580 -0.2140  0.3994 -0.7077
   10TAL    C4833053   5.128   6.117   6.548  0.1374 -0.5094  0.7968
   10TAL    C4933054   5.152   6.258   6.497  0.5453 -0.2004  0.3194
   10TAL    C5033055   5.062   6.365   6.559 -0.5432 -0.1882  0.3385
   11HTM    C5133056   4.491   5.830   6.481  0.1943 -0.1677 -0.0980
   11HTM    C5233057   4.370   5.795   6.428  0.4435 -0.4916 -0.4601
   11HTM    C5333058   4.347   5.652   6.425  0.7579 -0.5453 -0.3555
   11HTM    C5433059   4.451   5.579   6.475  0.7484 -0.2618  0.0862
   11HTM     S633060   4.586   5.685   6.530  0.3387  0.0975  0.4071
   12TAL    C5533061   4.214   5.603   6.365  0.1735  0.8735  0.3551
   12TAL    C5633062   4.220   5.587   6.215  0.9942  0.1613  0.3417
   12TAL    C5733063   4.093   5.527   6.162 -0.2129 -0.2407  0.6181
   12TAL    C5833064   4.092   5.534   6.008  0.1149  0.6335 -0.0127
   12TAL    C5933065   3.982   5.447   5.946  0.1841 -0.1607 -0.0465
   12TAL    C6033066   3.856   5.528   5.929  0.4534  0.5662  0.3016
   13HTM    C6133067   4.468   5.432   6.490  0.4445 -0.1179  0.1304
   13HTM    C6233068   4.587   5.369   6.506  0.3796 -0.2272  0.1802
   13HTM    C6333069   4.576   5.225   6.516  0.2518 -0.2222  0.1023
   13HTM    C6433070   4.447   5.180   6.507  0.2194 -0.1096 -0.0069
   13HTM     S733071   4.330   5.316   6.485  0.3486  0.0000 -0.0203
   14TAL    C6533072   4.700   5.145   6.539  0.0208  0.5611 -0.1261
   14TAL    C6633073   4.744   5.132   6.683 -0.1117  0.4892 -0.1700
   14TAL    C6733074   4.874   5.049   6.689 -0.6435 -0.0231 -0.1862
   14TAL    C6833075   5.008   5.126   6.652 -1.1532  0.7576 -0.1078
   14TAL    C6933076   5.030   5.248   6.739  0.1523 -0.3535  0.2065
   14TAL    C7033077   5.183   5.281   6.754  0.5274  0.4369 -0.1834
   15HTM    C7133078   4.394   5.043   6.503  0.2672 -0.2805  0.5075
   15HTM    C7233079   4.275   5.001   6.555 -0.1371 -0.1662 -0.2971
   15HTM    C7333080   4.247   4.862   6.531 -0.4132  0.0079 -1.0259
   15HTM    C7433081   4.345   4.798   6.461 -0.2193  0.0265 -0.7765
   15HTM     S833082   4.480   4.909   6.418  0.3310 -0.1761  0.4066
   16TAL    C7533083   4.120   4.788   6.581 -0.6802 -0.1969 -0.4802
   16TAL    C7633084   3.983   4.826   6.517 -0.5820  0.3915 -0.2344
   16TAL    C7733085   3.874   4.718   6.556 -0.3679 -0.5973  0.4603
   16TAL    C7833086   3.826   4.708   6.699 -0.4970 -0.2905 -0.8103
   16TAL    C7933087   3.686   4.766   6.743 -0.7080 -0.0192  1.0606
   16TAL    C8033088   3.627   4.898   6.679 -0.3026  0.5325  0.1105
   17HTM    C8133089   4.353   4.657   6.431 -0.6945 -0.3617 -0.5869
   17HTM    C8233090   4.302   4.594   6.321 -0.3829 -0.8368 -0.4611
   17HTM    C8333091   4.333   4.453   6.316  0.0591 -0.7598 -0.0238
   17HTM    C8433092   4.407   4.409   6.421  0.0844 -0.2262  0.1849
   17HTM     S933093   4.445   4.543   6.536 -0.4521  0.2243 -0.1586
   18TAL    C8533094   4.277   4.372   6.198  0.3324 -1.0097 -0.5651
   18TAL    C8633095   4.326   4.398   6.052 -0.0990  0.3153  0.2784
   18TAL    C8733096   4.473   4.373   6.025 -0.3872  0.2102 -0.3512
   18TAL    C8833097   4.519   4.423   5.893 -0.4854  0.2041 -0.4862
   18TAL    C8933098   4.668   4.393   5.874 -0.4224  0.7754  0.2840
   18TAL    C9033099   4.708   4.427   5.735 -0.5938  0.1731  0.2026
   19HTM    C9133100   4.463   4.280   6.445 -0.2732  0.1277 -0.1249
   19HTM    C9233101   4.592   4.242   6.423 -0.4573 -0.0222 -0.9642
   19HTM    C9333102   4.613   4.100   6.427 -0.5710 -0.0391 -0.9744
   19HTM    C9433103   4.500   4.029   6.453 -0.4734  0.0979 -0.1428
   19HTM    S1033104   4.357   4.137   6.474 -0.2284  0.2603  0.7240
   20TAL    C9533105   4.753   4.033   6.426  0.0509  0.5239 -0.1864
   20TAL    C9633106   4.861   4.083   6.325 -0.5313  0.0242  0.4539
   20TAL    C9733107   4.809   4.065   6.185  0.4869 -0.0530  0.6018
   20TAL    C9833108   4.894   4.150   6.091 -0.4228  0.5607  0.0045
   20TAL    C9933109   4.882   4.119   5.943 -0.0724  0.1248 -0.0481
   20TAL   C10033110   4.999   4.174   5.862  0.7098  0.0700  0.6763
   21HTM   C10133111   4.477   3.888   6.471  0.7326  0.3082 -0.6852
   21HTM   C10233112   4.376   3.830   6.543 -0.0973  0.9613 -1.2925
   21HTM   C10333113   4.375   3.686   6.535 -0.8273  0.9500 -1.0781
   21HTM   C10433114   4.475   3.635   6.457 -0.5544  0.2881 -0.3075
   21HTM    S1133115   4.578   3.765   6.387  0.6554 -0.3771  0.2117
   22TAL   C10533116   4.261   3.609   6.598 -0.0617 -0.0849 -0.2368
   22TAL   C10633117   4.268   3.598   6.749 -0.2437 -0.2691  0.0523
   22TAL   C10733118   4.399   3.553   6.821  0.4345 -0.0863  0.2154
   22TAL   C10833119   4.451   3.414   6.783 -0.4039 -0.0164  0.0626
   22TAL   C10933120   4.604   3.401   6.801  0.3757  0.3445  0.2944
   22TAL   C11033121   4.660   3.265   6.752  0.1456 -0.4949 -0.0844
   23HTM   C11133122   4.516   3.495   6.427  0.4206  0.1666 -0.9364
   23HTM   C11233123   4.644   3.454   6.403  0.3986  0.0144 -0.8028
   23HTM   C11333124   4.660   3.311   6.400  0.3607 -0.0094 -0.1099
   23HTM   C11433125   4.544   3.243   6.421  0.3541  0.1247  0.2854
   23HTM    S1233126   4.405   3.354   6.448  0.3955  0.2927 -0.1913
   24TAL   C11533127   4.788   3.252   6.349  0.3639  0.0221  0.6212
   24TAL   C11633128   4.888   3.220   6.447 -0.2023  0.1919  0.7530
   24TAL   C11733129   5.002   3.136   6.387 -0.5617 -0.3515 -0.4544
   24TAL   C11833130   4.967   2.988   6.362 -0.0473  0.1852 -0.0213
   24TAL   C11933131   5.065   2.904   6.283  0.1337  0.4053 -0.8420
   24TAL   C12033132   5.010   2.769   6.244 -0.0451 -0.2445  0.4486
   25HTM   C12133133   4.522   3.094   6.411 -0.0573 -0.0935  0.2324
   25HTM   C12233134   4.422   3.030   6.343 -0.1490  0.0219  0.2577
   25HTM   C12333135   4.436   2.887   6.341 -0.1774  0.0217  0.0386
   25HTM   C12433136   4.545   2.841   6.408 -0.1081 -0.0940 -0.1534
   25HTM    S1333137   4.641   2.977   6.479 -0.0001 -0.2124 -0.0719
   26TAL   C12533138   4.333   2.803   6.265 -0.2257 -0.4419  0.2510
   26TAL   C12633139   4.192   2.796   6.314  0.1838  0.9069 -0.1813
   26TAL   C12733140   4.178   2.747   6.459 -0.5154  0.4973 -0.0557
   26TAL   C12833141   4.039   2.779   6.515 -0.6626  0.1225  0.1161
   26TAL   C12933142   4.011   2.742   6.653 -0.1864  0.0948  0.2121
   26TAL   C13033143   3.866   2.766   6.689  0.2668  0.6984 -0.1116
   27HTM   C13133144   4.587   2.707   6.444 -0.4865 -0.5659  0.0809
   27HTM   C13233145   4.513   2.592   6.449  0.1845 -1.0266 -0.4561
   27HTM   C13333146   4.587   2.479   6.497  0.8178 -0.7968 -0.8671
   27HTM   C13433147   4.717   2.507   6.529  0.6296 -0.1606 -0.6434
   27HTM    S1433148   4.756   2.680   6.500 -0.3698  0.2004  0.1092
   28TAL   C13533149   4.523   2.344   6.536 -0.3385  0.4680  0.0215
   28TAL   C13633150   4.375   2.314   6.527 -0.1052 -0.0146  0.2098
   28TAL   C13733151   4.334   2.167   6.529 -0.0726  0.0900  0.5045
   28TAL   C13833152   4.182   2.151   6.521 -0.3269 -0.1410  0.3337
   28TAL   C13933153   4.117   2.008   6.539 -0.4309 -1.1140  0.6986
   28TAL   C14033154   4.133   1.955   6.677  0.3295 -0.7273  0.7829
   29HTM   C14133155   4.821   2.418   6.587 -0.2783 -0.2875 -0.8822
   29HTM   C14233156   4.941   2.464   6.633 -0.2084 -0.0479 -1.2956
   29HTM   C14333157   5.029   2.359   6.679 -0.1247  0.1847 -0.9232
   29HTM   C14433158   4.976   2.234   6.668 -0.1313  0.1221 -0.2258
   29HTM    S1533159   4.810   2.239   6.599 -0.2440 -0.2377  0.0165
   30TAL   C14533160   5.157   2.398   6.758  0.1838  0.4392 -0.5531
   30TAL   C14633161   5.300   2.420   6.700  0.6544  0.2062 -0.2624
   30TAL   C14733162   5.402   2.459   6.801 -0.3250  0.3900 -0.0437
   30TAL   C14833163   5.543   2.446   6.747  0.5240 -0.5928 -0.4524
   30TAL   C14933164   5.606   2.308   6.728 -0.1717  0.2629  0.0278
   30TAL   C15033165   5.738   2.323   6.662 -0.1709  0.5248  0.0706
   31HTM   C15133166   5.036   2.104   6.682 -0.0992  0.1090 -0.2203
   31HTM   C15233167   5.170   2.077   6.673 -0.0906  0.1602 -0.2348
   31HTM   C15333168   5.203   1.939   6.697 -0.0155  0.2083 -0.0644
   31HTM   C15433169   5.096   1.861   6.725  0.0330  0.1938  0.0799
   31HTM    S1633170   4.942   1.956   6.723 -0.0130  0.1177  0.0115
   32TAL   C15533171   5.350   1.901   6.715  0.5656  0.0607  0.6028
   32TAL   C15633172   5.472   1.979   6.667  0.5972  0.6181 -0.5666
   32TAL   C15733173   5.603   1.901   6.639 -0.4102 -0.4028  0.8685
   32TAL   C15833174   5.723   1.987   6.645 -1.1026 -0.8446 -0.7165
   32TAL   C15933175   5.855   1.929   6.609  0.0349  0.1820  0.3964
   32TAL   C16033176   5.976   2.024   6.601  0.5907  0.0225 -0.8605
   33HTM   C16133177   5.087   1.718   6.746  0.4633  0.2604 -0.2702
   33HTM   C16233178   4.980   1.637   6.722  0.4706  0.3129 -0.4873
   33HTM   C16333179   5.008   1.497   6.737  0.3719  0.2994 -0.4237
   33HTM   C16433180   5.137   1.470   6.771  0.2896  0.2367 -0.1580
   33HTM    S1733181   5.234   1.621   6.787  0.3311  0.1894  0.0337
   34TAL   C16533182   4.901   1.395   6.695 -0.3017 -0.0083  0.6981
   34TAL   C16633183   4.822   1.323   6.804 -0.4733 -0.2225  0.4647
   34TAL   C16733184   4.699   1.246   6.763  0.4490 -0.0580 -0.2713
   34TAL   C16833185   4.581   1.340   6.746 -0.3265 -0.4574 -0.4117
   34TAL   C16933186   4.441   1.285   6.773  0.2203 -1.1188  0.1942
   34TAL   C17033187   4.345   1.405   6.775 -0.2531  0.2284  0.1684
   35HTM   C17133188   5.209   1.343   6.768  0.2959  0.3583 -0.0109
   35HTM   C17233189   5.318   1.329   6.687  0.4997  0.3930  0.2575
   35HTM   C17333190   5.360   1.192   6.670  0.5205  0.3972  0.2739
   35HTM   C17433191   5.283   1.102   6.737  0.3325  0.3657  0.0179
   35HTM    S1833192   5.150   1.184   6.829  0.1128  0.3280 -0.2658
   36TAL   C17533193   5.471   1.170   6.569 -0.5683  0.1003 -0.5742
   36TAL   C17633194   5.602   1.162   6.663 -0.1800 -0.5083 -0.0733
   36TAL   C17733195   5.727   1.117   6.582 -0.4036 -0.2941  0.0758
   36TAL   C17833196   5.852   1.078   6.667 -0.4338 -0.2277 -0.2286
   36TAL   C17933197   5.855   0.932   6.714  0.0396 -0.3290 -0.0242
   36TAL   C18033198   5.854   0.823   6.613  0.0653  0.2475  1.8478
   37HTM   C18133199   5.292   0.958   6.733 -0.1746 -0.0906  0.6580
   37HTM   C18233200   5.191   0.869   6.707 -0.1493 -0.1943  0.9108
   37HTM   C18333201   5.234   0.732   6.709  0.0949 -0.1286  0.3562
   37HTM   C18433202   5.366   0.715   6.736  0.2548  0.0252 -0.3201
   37HTM    S1933203   5.449   0.874   6.761  0.1096  0.0994 -0.3084
   38TAL   C18533204   5.140   0.616   6.677  0.0051  0.3586 -0.3190
   38TAL   C18633205   5.049   0.578   6.785  0.4463 -0.4793  0.2856
   38TAL   C18733206   4.975   0.446   6.774 -0.4370  0.2203 -0.4340
   38TAL   C18833207   4.946   0.386   6.913  0.3424  0.2651  0.7089
   38TAL   C18933208   4.878   0.251   6.914 -0.3455 -0.3318  0.2245
   38TAL   C19033209   4.744   0.239   6.836 -0.1208  0.3255  0.0817
   39HTM   C19133210   5.457   0.605   6.738 -0.3259  0.1937  0.5186
   39HTM   C19233211   5.590   0.616   6.765 -0.2587  0.3385  0.1285
   39HTM   C19333212   5.657   0.490   6.781 -0.0458  0.4079 -0.1984
   39HTM   C19433213   5.574   0.382   6.767  0.0499  0.3159 -0.0577
   39HTM    S2033214   5.405   0.432   6.731 -0.1230  0.1332  0.5029
   40TAL   C19533215   5.796   0.492   6.839  0.1334  0.0642  0.2589
   40TAL   C19633216   5.912   0.501   6.739  0.4686  0.1866  0.2341
   40TAL   C19733217   6.053   0.500   6.789 -0.0935  0.0510 -0.2322
   40TAL   C19833218   6.168   0.532   6.694 -0.2814 -0.3979 -0.4306
   40TAL   C19933219   6.291   0.507   6.770 -0.1330  0.4482  0.3885
   40TAL   C20033220   6.429   0.567   6.723 -0.4657  0.0752  0.3716
   41HTM   C20133221   5.597   0.238   6.761  0.2637 -0.1554 -0.6787
   41HTM   C20233222   5.507   0.142   6.724  0.5066 -0.2998 -0.8936
   41HTM   C20333223   5.557   0.008   6.738  0.5255 -0.2356 -0.3319
   41HTM   C20433224   5.685   0.002   6.786  0.2966 -0.0418  0.3113
   41HTM    S2133225   5.752   0.166   6.817  0.0377  0.0750  0.2568
   42TAL   C20533226   5.457  -0.107   6.721  0.1755  0.4402 -1.2141
   42TAL   C20633227   5.404  -0.155   6.853 -0.3135 -0.1475 -0.0504
   42TAL   C20733228   5.372  -0.299   6.869 -0.2061 -0.2498 -0.0102
   42TAL   C20833229   5.493  -0.376   6.894 -0.3492 -0.1133 -0.1651
   42TAL   C20933230   5.462  -0.520   6.912 -0.1038  0.6168 -0.2026
   42TAL   C21033231   5.587  -0.604   6.873  0.6562  0.3838 -0.6427
   43HTM   C21133232   5.773  -0.108   6.804 -0.0818 -0.1056 -0.1660
   43HTM   C21233233   5.834  -0.152   6.918 -0.4165 -0.3037 -0.0598
   43HTM   C21333234   5.898  -0.280   6.904 -0.6001 -0.4001 -0.0188
   43HTM   C21433235   5.885  -0.334   6.779 -0.4050 -0.2756 -0.0927
   43HTM    S2233236   5.791  -0.227   6.669  0.0289 -0.0256 -0.2216
   44TAL   C21533237   5.962  -0.340   7.023  0.1317 -0.0413  0.8346
   44TAL   C21633238   6.077  -0.280   7.105 -0.3790 -0.1578  0.1085
   44TAL   C21733239   6.209  -0.296   7.027 -0.2598 -0.8493  0.4527
   44TAL   C21833240   6.339  -0.235   7.083  0.1726 -0.8820  0.2058
   44TAL   C21933241   6.371  -0.279   7.224 -0.2890 -0.1605  0.9228
   44TAL   C22033242   6.481  -0.194   7.292  0.2399 -0.2336  0.4547
   45HTM   C22133243   5.943  -0.452   6.720 -0.3229  0.0897  0.2920
   45HTM   C22233244   6.075  -0.485   6.728 -0.2122  0.5088  0.2060
   45HTM   C22333245   6.114  -0.591   6.639  0.0744  0.6533  0.1583
   45HTM   C22433246   6.011  -0.639   6.563  0.1827  0.3435  0.2081
   45HTM    S2333247   5.857  -0.554   6.598 -0.0713 -0.1578  0.3202
   46TAL   C22533248   6.255  -0.635   6.635  0.0670  0.0716  0.1375
   46TAL   C22633249   6.324  -0.681   6.770 -0.9508 -0.2338 -0.2917
   46TAL   C22733250   6.472  -0.734   6.766  0.0784 -0.4046 -0.6101
   46TAL   C22833251   6.511  -0.837   6.655  0.5766 -0.1194 -0.2128
   46TAL   C22933252   6.456  -0.971   6.685 -0.1490 -0.2698  0.2143
   46TAL   C23033253   6.447  -1.069   6.569 -0.3748 -0.3799  0.0045
   47HTM   C23133254   6.006  -0.737   6.450 -0.8684 -0.7004  0.4909
   47HTM   C23233255   5.904  -0.749   6.360 -1.2355 -1.5011  1.0014
   47HTM   C23333256   5.921  -0.858   6.268 -0.8516 -1.3819  0.9298
   47HTM   C23433257   6.036  -0.929   6.287 -0.1920 -0.4902  0.3652
   47HTM    S2433258   6.132  -0.863   6.425 -0.0031  0.2744 -0.1246
   48TAL   C23533259   5.833  -0.882   6.145  0.4634  0.1872  0.2534
   48TAL   C23633260   5.869  -0.985   6.036  0.3137 -0.3463  0.1779
   48TAL   C23733261   5.760  -0.968   5.935 -0.4137  0.3510 -0.1432
   48TAL   C23833262   5.810  -1.000   5.799 -0.4281 -0.1837  0.1363
   48TAL   C23933263   5.713  -1.036   5.690 -0.4593 -0.0376 -0.1432
   48TAL   C24033264   5.778  -1.090   5.564 -0.1459 -0.0123 -0.0762
    1HTM     C133265   6.997   5.503   5.442 -0.1122  0.2674 -0.9219
    1HTM     C233266   7.104   5.448   5.506 -0.1705 -0.1235 -1.1547
    1HTM     C333267   7.188   5.545   5.572 -0.1810 -0.5112 -0.5615
    1HTM     C433268   7.145   5.673   5.558 -0.1303 -0.4159  0.1235
    1HTM     S133269   6.994   5.682   5.460 -0.0652  0.1757  0.0725
    2TAL     C533270   7.302   5.500   5.660 -0.1326 -0.0689  0.2239
    2TAL     C633271   7.351   5.354   5.648  0.6473 -0.6758 -0.4287
    2TAL     C733272   7.449   5.310   5.761  0.3156  0.5439 -0.3657
    2TAL     C833273   7.455   5.158   5.780 -0.1891 -0.0456  0.7150
    2TAL     C933274   7.539   5.106   5.895  0.5025  0.0357 -0.4303
    2TAL    C1033275   7.502   5.148   6.039 -0.3594  0.5361 -0.1443
    3HTM    C1133276   7.200   5.801   5.601 -0.1392  0.3408 -0.7107
    3HTM    C1233277   7.139   5.922   5.584 -0.0954  0.4065 -0.4113
    3HTM    C1333278   7.219   6.034   5.625 -0.2034  0.2537  0.2244
    3HTM    C1433279   7.342   5.998   5.674 -0.3292  0.0713  0.4100
    3HTM     S233280   7.365   5.820   5.671 -0.3215  0.0791 -0.2087
    4TAL    C1533281   7.171   6.180   5.612 -0.1777  0.0696  0.3341
    4TAL    C1633282   7.047   6.213   5.691  0.0954 -0.3967 -0.2305
    4TAL    C1733283   7.062   6.234   5.838 -0.2759 -0.7288  0.4732
    4TAL    C1833284   7.167   6.338   5.892 -0.5232  0.3560  0.4383
    4TAL    C1933285   7.189   6.334   6.040  0.2506  0.0011  0.3579
    4TAL    C2033286   7.315   6.411   6.075 -0.7196  0.0629 -0.0880
    5HTM    C2133287   7.449   6.071   5.748  0.6740  0.2260 -0.7251
    5HTM    C2233288   7.547   6.011   5.821  1.1201  0.1581 -1.3711
    5HTM    C2333289   7.640   6.104   5.881  1.0662  0.1423 -1.2639
    5HTM    C2433290   7.612   6.234   5.854  0.5794  0.1980 -0.5351
    5HTM     S333291   7.466   6.251   5.749  0.1478  0.2758  0.0765
    6TAL    C2533292   7.734   6.056   5.998  0.2296  0.1740  0.4885
    6TAL    C2633293   7.815   5.932   5.968  0.0877 -1.1217 -0.2054
    6TAL    C2733294   7.891   5.891   6.092  0.1384 -0.1024 -0.2072
    6TAL    C2833295   7.993   5.776   6.095  1.2673 -0.6154 -0.3202
    6TAL    C2933296   8.112   5.819   6.015 -0.5295 -0.5980 -0.2663
    6TAL    C3033297   8.198   5.706   5.962  0.1645  0.2164 -0.7049
    7HTM    C3133298   7.672   6.359   5.893 -0.3240 -0.0464  0.0590
    7HTM    C3233299   7.799   6.380   5.937 -0.3583 -0.3884  0.3262
    7HTM    C3333300   7.829   6.518   5.965 -0.0718 -0.4783  0.4668
    7HTM    C3433301   7.724   6.602   5.943  0.1813 -0.2045  0.3069
    7HTM     S433302   7.579   6.513   5.884  0.0762  0.1910 -0.0365
    8TAL    C3533303   7.962   6.549   6.024 -0.0005 -0.1259 -0.4523
    8TAL    C3633304   8.082   6.520   5.931 -0.5940  0.1954  0.0983
    8TAL    C3733305   8.214   6.535   6.004  0.1225  0.6842 -0.1760
    8TAL    C3833306   8.336   6.498   5.920  0.4410  0.5114 -0.0846
    8TAL    C3933307   8.458   6.530   5.994  0.0141 -0.0897 -0.1073
    8TAL    C4033308   8.584   6.514   5.906  0.2789 -0.3299 -0.1791
    9HTM    C4133309   7.711   6.744   5.953 -0.0506 -0.0605  0.2928
    9HTM    C4233310   7.803   6.832   6.002 -0.0741 -0.1040  0.4182
    9HTM    C4333311   7.761   6.970   5.991  0.0169 -0.0825  0.3352
    9HTM    C4433312   7.638   6.986   5.936  0.1103 -0.0226  0.1465
    9HTM     S533313   7.564   6.828   5.891  0.0897  0.0116  0.0583
   10TAL    C4533314   7.861   7.081   6.037 -0.0054  0.3826 -0.3529
   10TAL    C4633315   7.840   7.135   6.171 -0.5834  0.1855 -0.0722
   10TAL    C4733316   7.947   7.229   6.239  0.5277  0.6092 -0.1169
   10TAL    C4833317   8.002   7.341   6.149 -0.1015 -0.1935  0.0162
   10TAL    C4933318   7.902   7.433   6.083  0.4546 -0.5766 -0.3192
   10TAL    C5033319   7.961   7.565   6.029  0.7087 -0.2096 -0.4371
   11HTM    C5133320   7.558   7.104   5.907 -0.2781  0.0464 -0.0938
   11HTM    C5233321   7.476   7.112   5.799 -0.5159  0.2203  0.0973
   11HTM    C5333322   7.447   7.247   5.758 -0.3524  0.2830  0.1872
   11HTM    C5433323   7.507   7.342   5.836  0.0105  0.1572  0.0654
   11HTM     S633324   7.605   7.267   5.967  0.1747 -0.0524 -0.1749
   12TAL    C5533325   7.350   7.262   5.646 -0.1846 -0.2202  0.3989
   12TAL    C5633326   7.221   7.340   5.667  1.0286  0.6571  0.0505
   12TAL    C5733327   7.103   7.297   5.755 -0.2790 -0.2275 -0.1920
   12TAL    C5833328   7.016   7.180   5.708 -0.4024 -0.6860 -0.2118
   12TAL    C5933329   6.951   7.175   5.571  0.2323  0.0019  0.6646
   12TAL    C6033330   6.877   7.048   5.544  0.2419  0.3026 -0.1432
   13HTM    C6133331   7.508   7.483   5.837  0.3748  0.0389 -0.5148
   13HTM    C6233332   7.620   7.557   5.813  0.1485  0.3536 -0.6065
   13HTM    C6333333   7.595   7.698   5.800 -0.1893  0.3462 -0.0603
   13HTM    C6433334   7.463   7.732   5.813 -0.2201  0.0258  0.4483
   13HTM     S733335   7.361   7.587   5.844  0.1779 -0.2937  0.2750
   14TAL    C6533336   7.717   7.777   5.764  0.2572 -0.4665 -0.2607
   14TAL    C6633337   7.795   7.833   5.885 -0.2096  0.7700  0.7021
   14TAL    C6733338   7.883   7.951   5.834  0.4516  0.1383 -0.3361
   14TAL    C6833339   7.948   8.038   5.943 -0.8264 -0.7538 -0.0484
   14TAL    C6933340   8.051   8.121   5.879 -0.8564 -0.4454  0.4595
   14TAL    C7033341   8.132   8.214   5.963 -0.3456 -0.3972  0.5745
   15HTM    C7133342   7.400   7.867   5.813  0.5953  0.0464 -0.0428
   15HTM    C7233343   7.279   7.907   5.863  0.5341 -0.3281  0.1085
   15HTM    C7333344   7.252   8.047   5.844  0.0818 -0.4096  0.1566
   15HTM    C7433345   7.351   8.114   5.779 -0.2021 -0.0976  0.0424
   15HTM     S833346   7.489   8.005   5.737  0.0824  0.3268 -0.1367
   16TAL    C7533347   7.117   8.112   5.867 -0.1961  0.2231  0.2592
   16TAL    C7633348   7.002   8.047   5.794 -0.0084 -0.2240  0.0773
   16TAL    C7733349   7.004   8.059   5.642  0.1370 -0.2312  0.0888
   16TAL    C7833350   6.889   7.982   5.575 -0.3625  0.2426 -0.2608
   16TAL    C7933351   6.870   8.003   5.428  0.1338  0.4607 -0.0718
   16TAL    C8033352   6.737   7.953   5.361  0.1628 -0.4142 -0.1541
   17HTM    C8133353   7.360   8.250   5.727  0.1082  0.6402  0.0934
   17HTM    C8233354   7.361   8.371   5.789  0.5872  0.8979 -0.4025
   17HTM    C8333355   7.378   8.482   5.700  0.8948  0.4735 -0.8771
   17HTM    C8433356   7.390   8.446   5.569  0.6502 -0.1081 -0.7425
   17HTM     S933357   7.381   8.267   5.548  0.0071 -0.1658 -0.0011
   18TAL    C8533358   7.389   8.622   5.757  0.1602  0.5480  0.0374
   18TAL    C8633359   7.300   8.649   5.874 -0.0917 -0.1599  0.1848
   18TAL    C8733360   7.320   8.781   5.933  0.1148  0.7445  0.6406
   18TAL    C8833361   7.272   8.908   5.858  0.2848  0.8188 -0.0695
   18TAL    C8933362   7.260   9.022   5.954  0.2628 -0.2917  0.0093
   18TAL    C9033363   7.211   9.149   5.874 -0.2074 -0.2140 -0.2747
   19HTM    C9133364   7.411   8.526   5.449 -0.1337  0.0227 -0.3612
   19HTM    C9233365   7.342   8.524   5.331 -0.0837  0.3600 -0.3953
   19HTM    C9333366   7.401   8.607   5.228 -0.0267  0.6342 -0.1421
   19HTM    C9433367   7.514   8.671   5.268 -0.0335  0.5076  0.0851
   19HTM    S1033368   7.556   8.633   5.439 -0.1125  0.0266 -0.0037
   20TAL    C9533369   7.346   8.605   5.086  0.6032  0.1634  0.6431
   20TAL    C9633370   7.230   8.506   5.049  0.1032 -0.4799 -0.1891
   20TAL    C9733371   7.158   8.519   4.915 -0.4309 -0.5265  0.0182
   20TAL    C9833372   7.242   8.516   4.785 -0.3344 -0.3038 -0.2068
   20TAL    C9933373   7.347   8.400   4.764  0.4093  0.3352 -0.0742
   20TAL   C10033374   7.301   8.254   4.768 -0.1824 -0.1338  0.3987
   21HTM   C10133375   7.620   8.754   5.208  0.0071  0.2656  0.3070
   21HTM   C10233376   7.608   8.845   5.107 -0.0792  0.0696  0.1419
   21HTM   C10333377   7.734   8.891   5.055 -0.1223 -0.1364 -0.1512
   21HTM   C10433378   7.842   8.836   5.117 -0.0692 -0.0980 -0.2101
   21HTM    S1133379   7.793   8.721   5.247  0.0408  0.2047  0.1027
   22TAL   C10533380   7.744   8.991   4.935  0.0454  0.9607  0.0230
   22TAL   C10633381   7.610   9.062   4.909  0.4598 -0.0647  0.4332
   22TAL   C10733382   7.605   9.156   4.793  0.6990 -0.5558  0.3175
   22TAL   C10833383   7.466   9.225   4.786 -0.1447  0.1737  0.0196
   22TAL   C10933384   7.432   9.322   4.667  0.0518 -0.0754  0.4380
   22TAL   C11033385   7.517   9.449   4.663 -0.5029  1.1996 -0.0464
   23HTM   C11133386   7.984   8.841   5.082  0.1789 -0.0140 -0.0576
   23HTM   C11233387   8.074   8.942   5.066 -0.0386  0.1507 -0.2270
   23HTM   C11333388   8.208   8.897   5.037  0.0324  0.3910 -0.2756
   23HTM   C11433389   8.220   8.762   5.031  0.3030  0.4105 -0.1430
   23HTM    S1233390   8.063   8.679   5.062  0.4920  0.1233  0.0547
   24TAL   C11533391   8.323   8.995   5.045  0.3889 -0.2794 -0.2020
   24TAL   C11633392   8.375   9.043   4.904 -0.2497  0.1880 -1.0379
   24TAL   C11733393   8.492   9.145   4.919 -0.2353 -0.3140 -0.0384
   24TAL   C11833394   8.610   9.106   5.008  0.4740  0.3459  0.0685
   24TAL   C11933395   8.738   9.190   5.002 -0.4426  0.0736  0.3994
   24TAL   C12033396   8.837   9.162   5.109  0.2407  0.2673 -0.1473
   25HTM   C12133397   8.339   8.677   5.008 -0.1830  0.3541  0.3301
   25HTM   C12233398   8.341   8.549   4.960 -0.4911  0.3285  0.3798
   25HTM   C12333399   8.473   8.493   4.950 -0.6037  0.1006  0.1478
   25HTM   C12433400   8.572   8.578   4.991 -0.3803 -0.0480 -0.0788
   25HTM    S1333401   8.505   8.736   5.046 -0.0084  0.0895 -0.0161
   26TAL   C12533402   8.499   8.353   4.901  0.0486  0.3329  0.4669
   26TAL   C12633403   8.531   8.336   4.751  0.1559  0.1089 -0.1702
   26TAL   C12733404   8.566   8.197   4.694 -0.1459  0.4350  0.6702
   26TAL   C12833405   8.482   8.071   4.732 -0.3979 -0.9160 -0.7120
   26TAL   C12933406   8.542   7.938   4.713  0.1796 -0.7719  0.5708
   26TAL   C13033407   8.445   7.827   4.751 -0.0129 -0.1558 -0.0248
   27HTM   C13133408   8.718   8.553   4.987 -0.0623 -0.1781  0.2744
   27HTM   C13233409   8.802   8.446   4.985 -0.0591 -0.1802  0.4582
   27HTM   C13333410   8.942   8.481   4.982 -0.0587 -0.1802  0.4532
   27HTM   C13433411   8.964   8.615   4.983 -0.0618 -0.1785  0.2654
   27HTM    S1433412   8.810   8.709   4.987 -0.0645 -0.1765  0.0790
   28TAL   C13533413   9.063   8.385   4.989  0.3913  0.6317  0.2426
   28TAL   C13633414   9.099   8.316   4.859  0.2071 -0.4468  0.3302
   28TAL   C13733415   9.243   8.264   4.848 -0.1293 -0.0313  0.1758
   28TAL   C13833416   9.365   8.361   4.844 -0.4997  1.0592  0.3510
   28TAL   C13933417   9.358   8.483   4.753 -0.8957 -0.7201  0.7402
   28TAL   C14033418   9.470   8.580   4.776  0.6073 -0.1046 -0.2845
   29HTM   C14133419   9.085   8.697   4.973  0.3257 -0.4189 -0.2850
   29HTM   C14233420   9.206   8.703   5.035  0.2110 -0.1392 -0.0849
   29HTM   C14333421   9.278   8.825   5.010 -0.1624  0.1621  0.2885
   29HTM   C14433422   9.212   8.912   4.929 -0.3324  0.1118  0.3731
   29HTM    S1533423   9.052   8.846   4.877 -0.0318 -0.3227 -0.0154
   30TAL   C14533424   9.416   8.835   5.075  0.0685 -0.1312 -0.7925
   30TAL   C14633425   9.440   8.807   5.227  0.0357 -0.8464  0.1684
   30TAL   C14733426   9.406   8.925   5.316 -0.4383 -0.6117  0.1191
   30TAL   C14833427   9.261   8.972   5.328  0.4022  0.0074  0.3655
   30TAL   C14933428   9.236   9.107   5.385  0.4840 -0.8923 -0.5748
   30TAL   C15033429   9.131   9.202   5.325 -0.1857  0.2941 -0.2231
   31HTM   C15133430   9.249   9.047   4.887 -0.3256  0.1463  0.2664
   31HTM   C15233431   9.193   9.100   4.774 -0.5002  0.0917  0.3271
   31HTM   C15333432   9.198   9.244   4.769 -0.0755  0.0702  0.0288
   31HTM   C15433433   9.257   9.301   4.878  0.4228  0.1084 -0.2590
   31HTM    S1633434   9.312   9.176   4.996  0.3942  0.1750 -0.1748
   32TAL   C15533435   9.155   9.314   4.641 -0.2337  0.2206  0.8761
   32TAL   C15633436   9.007   9.299   4.602 -0.6232  0.9181 -0.1138
   32TAL   C15733437   8.950   9.158   4.574 -0.5568  0.1247 -0.1590
   32TAL   C15833438   8.803   9.154   4.541 -0.2151  0.1993  0.0385
   32TAL   C15933439   8.701   9.221   4.622  0.2667  0.5182  0.1719
   32TAL   C16033440   8.554   9.208   4.579 -0.1177  0.6703 -0.0638
   33HTM   C16133441   9.286   9.437   4.920 -0.4543 -0.0888  0.2293
   33HTM   C16233442   9.312   9.472   5.049 -0.4478 -0.0641  0.2213
   33HTM   C16333443   9.309   9.614   5.072  0.1196 -0.0224  0.0672
   33HTM   C16433444   9.280   9.687   4.961  0.5456 -0.0153 -0.0418
   33HTM    S1733445   9.254   9.581   4.817  0.2611 -0.0612  0.0417
   34TAL   C16533446   9.346   9.672   5.209 -0.6010 -0.5656 -0.2429
   34TAL   C16633447   9.252   9.648   5.333 -0.8866  0.3220  0.0458
   34TAL   C16733448   9.102   9.659   5.309 -0.5083 -0.8450 -0.4381
   34TAL   C16833449   9.044   9.790   5.265  0.1272 -0.6016  0.3732
   34TAL   C16933450   9.042   9.900   5.375 -0.1989 -0.0241  0.6306
   34TAL   C17033451   9.009  10.041   5.335  0.6547  0.7574 -0.2932
   35HTM   C17133452   9.244   9.828   4.949  0.1331  0.1426  0.0318
   35HTM   C17233453   9.139   9.873   4.874 -0.0151  0.0574  0.1874
   35HTM   C17333454   9.113  10.013   4.891 -0.1148  0.0326  0.2396
   35HTM   C17433455   9.197  10.075   4.978 -0.0428  0.0987  0.1232
   35HTM    S1833456   9.318   9.960   5.046  0.1582  0.1983 -0.0627
   36TAL   C17533457   9.008  10.077   4.805  0.4324  0.0514  0.2707
   36TAL   C17633458   8.967  10.004   4.675  0.1413 -0.0312  0.0075
   36TAL   C17733459   9.069   9.996   4.567 -0.0400  0.5329  0.3202
   36TAL   C17833460   9.010   9.929   4.448 -0.5292  0.3434  0.0789
   36TAL   C17933461   9.111   9.912   4.336  0.3064  1.0321  0.0127
   36TAL   C18033462   9.189  10.035   4.286  0.4660 -0.0289 -0.1223
   37HTM   C18133463   9.211  10.209   5.021  0.3841  0.1574  0.4801
   37HTM   C18233464   9.310  10.273   5.090  0.2619  0.5947  0.2487
   37HTM   C18333465   9.281  10.412   5.114 -0.1377  0.5586  0.0067
   37HTM   C18433466   9.162  10.454   5.065 -0.3203  0.0937  0.0534
   37HTM    S1933467   9.074  10.320   4.982  0.0009 -0.3377  0.4099
   38TAL   C18533468   9.380  10.502   5.186 -0.2950  0.3640 -0.3990
   38TAL   C18633469   9.514  10.523   5.119 -0.9865 -0.4995  0.2914
   38TAL   C18733470   9.605  10.595   5.216  0.1312  0.1204 -0.2807
   38TAL   C18833471   9.746  10.580   5.173 -0.0161  0.5224  0.2521
   38TAL   C18933472   9.819  10.717   5.196  0.5399 -0.5650 -0.3378
   38TAL   C19033473   9.962  10.721   5.147  0.4440 -0.5757  0.4056
   39HTM   C19133474   9.094  10.578   5.056 -0.0385  0.1133 -0.0818
   39HTM   C19233475   9.104  10.690   5.134 -0.1048  0.1146 -0.0749
   39HTM   C19333476   9.022  10.799   5.089 -0.0604  0.1166 -0.1507
   39HTM   C19433477   8.950  10.772   4.976  0.0398  0.1169 -0.2152
   39HTM    S2033478   8.980  10.603   4.918  0.0862  0.1146 -0.1852
   40TAL   C19533479   9.020  10.937   5.157  0.1234  0.6888  0.0422
   40TAL   C19633480   9.131  11.040   5.126 -0.1543 -0.1179  0.3717
   40TAL   C19733481   9.271  10.997   5.168 -0.3020 -0.6456  0.2550
   40TAL   C19833482   9.381  11.103   5.122  0.5767 -0.0530 -0.1312
   40TAL   C19933483   9.519  11.048   5.155 -0.2864  0.0708  0.2050
   40TAL   C20033484   9.625  11.149   5.134  0.6453 -0.6760  0.5961
   41HTM   C20133485   8.863  10.855   4.898 -0.2439 -0.4830 -0.2749
   41HTM   C20233486   8.727  10.869   4.896 -0.2432 -0.4539 -0.1276
   41HTM   C20333487   8.680  10.969   4.804 -0.3090 -0.2894  0.0851
   41HTM   C20433488   8.780  11.032   4.736 -0.3601 -0.1929  0.1005
   41HTM    S2133489   8.942  10.969   4.783 -0.3280 -0.3032 -0.1554
   42TAL   C20533490   8.537  11.012   4.808  0.1653 -0.2640  0.3140
   42TAL   C20633491   8.487  11.115   4.909 -0.4558  0.0229 -0.6209
   42TAL   C20733492   8.548  11.257   4.905 -0.7324 -0.3306 -0.3551
   42TAL   C20833493   8.505  11.351   4.795  0.0255 -0.2762  0.1208
   42TAL   C20933494   8.569  11.488   4.795  0.9762 -1.2554  0.3114
   42TAL   C21033495   8.710  11.491   4.758 -0.3348 -0.0981  0.0586
   43HTM   C21133496   8.769  11.132   4.631 -0.2577 -0.1074  0.1379
   43HTM   C21233497   8.872  11.204   4.578 -0.0710 -0.1366  0.4640
   43HTM   C21333498   8.834  11.285   4.466  0.2999 -0.0967  0.3684
   43HTM   C21433499   8.703  11.275   4.432  0.3955 -0.0369 -0.0303
   43HTM    S2233500   8.615  11.161   4.541  0.0226 -0.0264 -0.3186
   44TAL   C21533501   8.928  11.377   4.400  0.2010  0.1961  0.5229
   44TAL   C21633502   9.008  11.328   4.277 -0.3793  0.4396  0.6689
   44TAL   C21733503   8.937  11.266   4.156 -0.6491  0.3091  0.2253
   44TAL   C21833504   9.011  11.259   4.020 -0.2495 -0.5984 -0.0294
   44TAL   C21933505   8.917  11.184   3.929 -0.2562  0.1616 -0.7969
   44TAL   C22033506   8.963  11.155   3.791 -0.3835  0.2620  0.4246
   45HTM   C22133507   8.615  11.331   4.330 -0.1722 -0.0252  0.0892
   45HTM   C22233508   8.528  11.262   4.250 -0.5050  0.3325  0.1411
   45HTM   C22333509   8.461  11.344   4.153 -0.1669  0.5963  0.1290
   45HTM   C22433510   8.496  11.476   4.158  0.4230  0.4401  0.0679
   45HTM    S2333511   8.619  11.506   4.287  0.5991 -0.0564  0.0210
   46TAL   C22533512   8.355  11.276   4.054 -0.3989 -0.0607  0.0553
   46TAL   C22633513   8.260  11.171   4.110  0.1319  0.3033 -0.1518
   46TAL   C22733514   8.204  11.087   3.996 -0.1581  0.0963  0.1468
   46TAL   C22833515   8.110  10.985   4.054 -0.3616 -0.1063 -0.4912
   46TAL   C22933516   8.044  10.894   3.946  0.3455  0.4466  0.2147
   46TAL   C23033517   7.971  10.766   3.984 -0.0469  0.3816 -0.4294
   47HTM   C23133518   8.445  11.595   4.089  0.0943 -0.4259 -0.0223
   47HTM   C23233519   8.489  11.723   4.096 -0.0792 -0.3773  0.1991
   47HTM   C23333520   8.435  11.809   3.993 -0.2313 -0.2620  0.3752
   47HTM   C23433521   8.349  11.745   3.908 -0.1746 -0.2229  0.2882
   47HTM    S2433522   8.330  11.571   3.952  0.0782 -0.3295 -0.0257
   48TAL   C23533523   8.482  11.955   3.982  0.0872  0.7226 -0.0890
   48TAL   C23633524   8.400  12.048   3.891  0.7680  0.4186  0.2510
   48TAL   C23733525   8.484  12.157   3.817  0.2598 -0.0649 -0.1169
   48TAL   C23833526   8.391  12.273   3.778  0.2316 -0.1736 -0.1350
   48TAL   C23933527   8.463  12.402   3.734 -0.1054  0.9010  1.0295
   48TAL   C24033528   8.533  12.383   3.603  0.1382  0.7506 -0.2910
    1HTM     C133529   7.702   2.468   3.476  0.0942  0.0644  0.5105
    1HTM     C233530   7.578   2.514   3.510  0.1667  0.2714  0.4947
    1HTM     C333531   7.571   2.658   3.522  0.3216  0.3079  0.1638
    1HTM     C433532   7.689   2.721   3.497  0.3674  0.1285 -0.0726
    1HTM     S133533   7.820   2.604   3.456  0.2173 -0.1021  0.1056
    2TAL     C533534   7.437   2.723   3.567 -0.2089  0.8613  0.1203
    2TAL     C633535   7.324   2.627   3.611  0.5057 -0.3387 -0.4817
    2TAL     C733536   7.210   2.699   3.673 -0.0910  0.3214 -1.0101
    2TAL     C833537   7.120   2.633   3.780 -0.3456  0.0802 -0.3702
    2TAL     C933538   7.033   2.514   3.749 -0.5485  0.1257 -0.3075
    2TAL    C1033539   6.947   2.524   3.619 -0.1608  0.5328  0.1959
    3HTM    C1133540   7.717   2.863   3.483 -0.0320  0.0959 -0.2083
    3HTM    C1233541   7.837   2.915   3.443 -0.0269  0.0916 -0.1986
    3HTM    C1333542   7.842   3.059   3.447  0.0596  0.0830  0.0323
    3HTM    C1433543   7.727   3.117   3.490  0.1204  0.0806  0.1988
    3HTM     S233544   7.601   2.994   3.529  0.0725  0.0894  0.0757
    4TAL    C1533545   7.972   3.143   3.433 -0.5960 -0.6111 -0.4099
    4TAL    C1633546   8.097   3.064   3.418 -0.2971  0.4514  0.3374
    4TAL    C1733547   8.219   3.154   3.442  0.6718  0.6032  0.4196
    4TAL    C1833548   8.353   3.078   3.431  0.7770 -0.1348  0.7217
    4TAL    C1933549   8.366   2.949   3.525 -0.6160 -0.1078  0.9162
    4TAL    C2033550   8.506   2.900   3.561  0.1898 -0.0026 -1.0775
    5HTM    C2133551   7.689   3.253   3.516 -0.0872  0.0817  0.3508
    5HTM    C2233552   7.753   3.368   3.480 -0.2131  0.1389  0.3107
    5HTM    C2333553   7.683   3.487   3.521 -0.3564  0.0774  0.2487
    5HTM    C2433554   7.567   3.463   3.588 -0.3393 -0.0263  0.2415
    5HTM     S333555   7.536   3.286   3.605 -0.1392 -0.0551  0.3130
    6TAL    C2533556   7.734   3.629   3.502 -0.3227  0.3528 -0.0424
    6TAL    C2633557   7.846   3.660   3.395  0.4172  0.0025  0.2558
    6TAL    C2733558   7.796   3.707   3.257 -0.6778 -0.3228  0.7105
    6TAL    C2833559   7.723   3.839   3.261  0.3792  0.1864  0.3438
    6TAL    C2933560   7.689   3.886   3.121 -0.0166 -0.1265 -0.4169
    6TAL    C3033561   7.609   4.010   3.126 -0.4750 -0.3244 -0.1230
    7HTM    C3133562   7.465   3.563   3.630 -0.3806 -0.4054  0.7669
    7HTM    C3233563   7.335   3.572   3.588 -0.5779 -0.4129  1.3734
    7HTM    C3333564   7.268   3.690   3.637 -0.1993 -0.1506  1.2681
    7HTM    C3433565   7.346   3.770   3.715  0.2870  0.0568  0.5814
    7HTM     S433566   7.512   3.702   3.734  0.3045 -0.0637  0.0098
    8TAL    C3533567   7.124   3.723   3.582 -0.1139 -0.1876 -0.3323
    8TAL    C3633568   7.045   3.617   3.503 -0.6055 -0.1311 -0.1941
    8TAL    C3733569   6.935   3.683   3.419  0.0559  0.0927 -0.0903
    8TAL    C3833570   6.790   3.634   3.431  1.0516  0.1517  0.2773
    8TAL    C3933571   6.678   3.729   3.389 -1.0311  0.4280 -0.1876
    8TAL    C4033572   6.539   3.662   3.401 -0.1860  0.3351 -0.4666
    9HTM    C4133573   7.314   3.901   3.776  0.2135  0.0013  0.1995
    9HTM    C4233574   7.408   3.990   3.817  0.0257  0.3117 -0.0353
    9HTM    C4333575   7.353   4.111   3.873 -0.2294  0.4084 -0.4948
    9HTM    C4433576   7.217   4.114   3.874 -0.2356  0.1721 -0.6104
    9HTM     S533577   7.147   3.963   3.804  0.0823 -0.1940 -0.1438
   10TAL    C4533578   7.448   4.219   3.921  0.0213  0.0414  0.0056
   10TAL    C4633579   7.596   4.207   3.891  0.2326  0.3108 -0.3207
   10TAL    C4733580   7.672   4.329   3.919  0.3164  0.3972 -0.3271
   10TAL    C4833581   7.814   4.273   3.894 -0.6551 -0.1562  0.1058
   10TAL    C4933582   7.940   4.354   3.920 -0.5671  0.3524  0.2428
   10TAL    C5033583   8.064   4.285   3.872 -0.3203 -0.9258  0.4059
   11HTM    C5133584   7.125   4.222   3.902  0.3173 -0.0315 -0.2184
   11HTM    C5233585   6.999   4.200   3.950  0.3409 -0.3068 -0.2837
   11HTM    C5333586   6.918   4.319   3.958  0.1009 -0.4714 -0.2558
   11HTM    C5433587   6.982   4.432   3.916 -0.1062 -0.3214 -0.1696
   11HTM     S633588   7.151   4.397   3.864 -0.0124  0.0418 -0.1165
   12TAL    C5533589   6.776   4.308   4.014  0.0322 -0.6439  0.1830
   12TAL    C5633590   6.678   4.261   3.913  0.2081  0.0684  0.3774
   12TAL    C5733591   6.652   4.354   3.785  0.3500  0.6372  0.1584
   12TAL    C5833592   6.585   4.486   3.820 -0.1653  0.1983  0.1583
   12TAL    C5933593   6.525   4.561   3.701  0.2922  0.0409  0.0776
   12TAL    C6033594   6.493   4.707   3.732 -0.0317 -0.3194  0.2678
   13HTM    C6133595   6.946   4.576   3.910  0.3916 -0.0407  0.3677
   13HTM    C6233596   6.981   4.674   3.821  0.3207  0.0064  0.3916
   13HTM    C6333597   6.910   4.798   3.841 -0.0079 -0.1519  0.2154
   13HTM    C6433598   6.821   4.795   3.944 -0.1873 -0.3198  0.0570
   13HTM     S733599   6.820   4.634   4.025  0.0465 -0.2908  0.1187
   14TAL    C6533600   6.971   4.915   3.765  0.2926  0.1745  0.1550
   14TAL    C6633601   6.961   4.919   3.613  0.7854 -0.2579 -0.0934
   14TAL    C6733602   6.816   4.963   3.574 -0.2864 -0.6262  0.2612
   14TAL    C6833603   6.781   4.942   3.433  0.2742  0.5660 -0.7192
   14TAL    C6933604   6.639   4.972   3.382  0.0851 -0.3238  0.3016
   14TAL    C7033605   6.635   4.950   3.238 -0.0684  0.2184 -0.2716
   15HTM    C7133606   6.725   4.895   3.993  0.0767 -0.0682 -0.1012
   15HTM    C7233607   6.618   4.870   4.073  0.2522 -0.1690  0.1044
   15HTM    C7333608   6.530   4.983   4.089  0.1748 -0.2525  0.2680
   15HTM    C7433609   6.570   5.094   4.022 -0.0602 -0.2156  0.1869
   15HTM     S833610   6.724   5.064   3.932 -0.2024 -0.0712 -0.1045
   16TAL    C7533611   6.399   4.980   4.173  0.2058 -0.2025  0.3017
   16TAL    C7633612   6.333   4.848   4.228 -0.7516  0.4129 -0.0535
   16TAL    C7733613   6.316   4.727   4.132 -0.0347 -0.1365 -0.2023
   16TAL    C7833614   6.223   4.615   4.187 -0.4571  0.4360 -0.2814
   16TAL    C7933615   6.220   4.496   4.089  0.0211 -0.2325 -0.0459
   16TAL    C8033616   6.151   4.366   4.126  0.5126  0.3249  0.1812
   17HTM    C8133617   6.522   5.235   4.027  0.6204 -0.3427  0.2132
   17HTM    C8233618   6.389   5.268   4.025  0.5083 -0.7751  0.3412
   17HTM    C8333619   6.365   5.409   4.037  0.0553 -0.8581  0.4048
   17HTM    C8433620   6.478   5.484   4.049 -0.1775 -0.4886  0.3262
   17HTM     S933621   6.626   5.381   4.045  0.1591 -0.0039  0.1636
   18TAL    C8533622   6.218   5.461   4.052  0.1113  0.0415  0.1383
   18TAL    C8633623   6.112   5.425   3.946  0.2176  0.2266  0.7752
   18TAL    C8733624   5.974   5.482   3.957 -0.5179 -0.0827  0.1866
   18TAL    C8833625   5.932   5.625   3.973 -0.3302  0.1920 -0.8771
   18TAL    C8933626   6.003   5.725   3.884 -0.2474  0.1683 -0.1459
   18TAL    C9033627   5.958   5.867   3.915 -0.5979  0.5776 -0.1582
   19HTM    C9133628   6.490   5.630   4.037 -0.4270 -0.0927 -0.4862
   19HTM    C9233629   6.577   5.697   3.956 -0.5670 -0.1600 -0.6936
   19HTM    C9333630   6.564   5.840   3.963 -0.2346 -0.1421 -0.4354
   19HTM    C9433631   6.467   5.883   4.050  0.1588 -0.0608 -0.0313
   19HTM    S1033632   6.384   5.744   4.129  0.1397  0.0001  0.0550
   20TAL    C9533633   6.657   5.927   3.886  0.8762 -0.0476  0.5749
   20TAL    C9633634   6.641   5.935   3.732  0.1307 -0.4178 -0.8574
   20TAL    C9733635   6.685   5.820   3.640  0.3144 -0.5964  0.3874
   20TAL    C9833636   6.590   5.808   3.525 -0.0021 -0.1419  0.5569
   20TAL    C9933637   6.446   5.765   3.546 -0.5350 -0.0835 -0.3443
   20TAL   C10033638   6.406   5.645   3.640 -0.3278 -0.0448 -0.2776
   21HTM   C10133639   6.422   6.020   4.082 -0.1059 -0.2510  0.6488
   21HTM   C10233640   6.483   6.127   4.140 -0.4015 -0.4108  1.2608
   21HTM   C10333641   6.402   6.246   4.143 -0.3865 -0.3967  1.1022
   21HTM   C10433642   6.278   6.229   4.086 -0.0795 -0.2262  0.3696
   21HTM    S1133643   6.255   6.061   4.025  0.2168 -0.0687 -0.1818
   22TAL   C10533644   6.462   6.365   4.216 -0.1898  0.2828 -0.3978
   22TAL   C10633645   6.495   6.482   4.128 -0.1532 -0.4469 -0.2590
   22TAL   C10733646   6.577   6.586   4.196  0.5653  0.4211 -0.1365
   22TAL   C10833647   6.607   6.702   4.101 -0.1777 -0.4099 -0.5412
   22TAL   C10933648   6.722   6.789   4.149  0.3512  0.3104 -0.1248
   22TAL   C11033649   6.746   6.919   4.085  0.8243  0.2928 -0.2408
   23HTM   C11133650   6.160   6.323   4.076  0.0951  0.3005 -0.0005
   23HTM   C11233651   6.154   6.459   4.080 -0.1724  0.2868  0.0739
   23HTM   C11333652   6.021   6.512   4.062 -0.2682  0.0391  0.0446
   23HTM   C11433653   5.926   6.416   4.043 -0.0735 -0.1368 -0.0527
   23HTM    S1233654   5.997   6.251   4.047  0.2483 -0.0012 -0.1150
   24TAL   C11533655   5.992   6.658   4.056  0.1385 -0.2128  0.4897
   24TAL   C11633656   6.111   6.758   4.030 -0.4829  0.1848 -0.2491
   24TAL   C11733657   6.146   6.829   4.155  0.0443 -0.1991 -0.3892
   24TAL   C11833658   6.278   6.901   4.140  0.0360  0.1414  0.2177
   24TAL   C11933659   6.327   6.989   4.250 -0.4337  0.2223 -0.8705
   24TAL   C12033660   6.415   7.111   4.214 -0.1972 -0.2017  0.1527
   25HTM   C12133661   5.780   6.422   4.016 -0.1960  0.1994 -0.0258
   25HTM   C12233662   5.706   6.321   3.962 -0.2005  0.3273 -0.2593
   25HTM   C12333663   5.568   6.354   3.940 -0.1521  0.4530 -0.3763
   25HTM   C12433664   5.536   6.481   3.978 -0.1106  0.4205 -0.2322
   25HTM    S1333665   5.679   6.569   4.045 -0.1291  0.2274  0.0649
   26TAL   C12533666   5.486   6.237   3.891 -0.3195 -0.0568 -0.0105
   26TAL   C12633667   5.499   6.207   3.745  0.5643  0.2858 -0.1106
   26TAL   C12733668   5.461   6.065   3.703 -0.1278 -0.8078  0.6618
   26TAL   C12833669   5.584   5.978   3.729 -0.7689  0.3853 -0.4987
   26TAL   C12933670   5.558   5.836   3.686  0.2052  0.0984  0.1327
   26TAL   C13033671   5.667   5.741   3.718 -0.3434  0.6636 -0.7039
   27HTM   C13133672   5.404   6.548   3.978 -0.4939  0.1125  0.0964
   27HTM   C13233673   5.279   6.495   3.990 -0.5684  0.3004  0.1606
   27HTM   C13333674   5.175   6.594   3.997 -0.4380  0.4551 -0.0467
   27HTM   C13433675   5.220   6.722   3.992 -0.2639  0.3854 -0.2690
   27HTM    S1433676   5.400   6.728   3.977 -0.2514  0.1165 -0.2337
   28TAL   C13533677   5.028   6.546   4.014  0.4455 -0.0467  0.3776
   28TAL   C13633678   4.941   6.541   3.888  0.2416  0.2253  0.2338
   28TAL   C13733679   4.806   6.486   3.946  0.6323  0.2609 -0.1721
   28TAL   C13833680   4.702   6.463   3.841  0.3565  0.1498  0.3195
   28TAL   C13933681   4.561   6.421   3.903  0.0045  0.5519  0.2781
   28TAL   C14033682   4.443   6.382   3.822  0.7243 -0.0932  0.4649
   29HTM   C14133683   5.154   6.851   4.016  0.0013  0.0255  0.0871
   29HTM   C14233684   5.037   6.896   3.962 -0.1540 -0.0770  0.3381
   29HTM   C14333685   5.018   7.038   3.975 -0.3526 -0.1249  0.5732
   29HTM   C14433686   5.120   7.102   4.039 -0.3484 -0.0592  0.5012
   29HTM    S1533687   5.250   6.986   4.088 -0.0915  0.0696  0.1283
   30TAL   C14533688   4.893   7.102   3.915 -0.5784 -0.4998  0.7361
   30TAL   C14633689   4.791   7.175   4.014  0.2664  0.3389  0.1568
   30TAL   C14733690   4.665   7.214   3.935  0.4604  0.7299 -0.5755
   30TAL   C14833691   4.544   7.261   4.010  0.2174  0.0680 -0.1426
   30TAL   C14933692   4.546   7.399   4.086  0.6103 -0.6613  0.4413
   30TAL   C15033693   4.585   7.520   4.002  0.1523  0.2664  0.5015
   31HTM   C15133694   5.145   7.237   4.074 -0.2124  0.0598  0.1758
   31HTM   C15233695   5.211   7.286   4.182 -0.3853 -0.0279  0.3207
   31HTM   C15333696   5.202   7.429   4.196 -0.1013  0.0024  0.2151
   31HTM   C15433697   5.128   7.489   4.098  0.2882  0.1129 -0.0110
   31HTM    S1633698   5.065   7.369   3.980  0.3269  0.1886 -0.1086
   32TAL   C15533699   5.273   7.497   4.310  0.2501  0.0699  0.1089
   32TAL   C15633700   5.256   7.450   4.454  0.0998 -0.0953 -0.2230
   32TAL   C15733701   5.355   7.514   4.543 -0.1263 -0.7217  0.5828
   32TAL   C15833702   5.290   7.574   4.667 -0.7964 -0.0388  0.2872
   32TAL   C15933703   5.399   7.661   4.743  0.0719 -0.1059 -0.1668
   32TAL   C16033704   5.339   7.761   4.840  0.1762 -0.0595 -1.0024
   33HTM   C16133705   5.085   7.625   4.073 -0.1876 -0.0131 -0.5125
   33HTM   C16233706   4.996   7.669   3.979 -0.1934  0.2155 -0.4005
   33HTM   C16333707   4.986   7.813   3.971 -0.2894  0.2332  0.0393
   33HTM   C16433708   5.067   7.878   4.059 -0.3566  0.0181  0.2632
   33HTM    S1733709   5.163   7.763   4.159 -0.3038 -0.2254 -0.0677
   34TAL   C16533710   4.895   7.880   3.867 -0.6400  0.2681 -0.1433
   34TAL   C16633711   4.751   7.871   3.904  0.1853 -0.4189  0.4225
   34TAL   C16733712   4.663   7.927   3.792 -0.1397 -0.1362 -0.2328
   34TAL   C16833713   4.522   7.956   3.829 -0.0347 -0.1609  0.0771
   34TAL   C16933714   4.502   8.072   3.924 -0.0538 -0.2502 -0.0552
   34TAL   C17033715   4.361   8.088   3.987 -0.0956 -0.3042  0.3908
   35HTM   C17133716   5.101   8.018   4.087  0.3745 -0.4020  0.1000
   35HTM   C17233717   5.024   8.130   4.080 -0.0861 -0.7043  0.2742
   35HTM   C17333718   5.088   8.248   4.133 -0.4587 -0.4649  0.1986
   35HTM   C17433719   5.214   8.225   4.180 -0.2824  0.0188 -0.0330
   35HTM    S1833720   5.262   8.052   4.162  0.3731  0.2108 -0.1747
   36TAL   C17533721   5.021   8.389   4.129 -0.5486 -0.1337  0.4488
   36TAL   C17633722   4.875   8.389   4.090 -0.2924 -0.0393  0.0075
   36TAL   C17733723   4.809   8.528   4.087 -0.5009  0.4687  0.4889
   36TAL   C17833724   4.662   8.530   4.040 -0.0370 -0.0775 -0.5028
   36TAL   C17933725   4.559   8.455   4.117  0.1659 -0.8546 -0.0482
   36TAL   C18033726   4.429   8.466   4.048  0.1808 -0.0809  0.8367
   37HTM   C18133727   5.308   8.314   4.248 -0.3489 -0.4506  0.2371
   37HTM   C18233728   5.416   8.272   4.319 -0.5713 -0.5622  0.5083
   37HTM   C18333729   5.492   8.379   4.378 -0.5205 -0.6328  0.5708
   37HTM   C18433730   5.441   8.503   4.351 -0.2594 -0.5746  0.3476
   37HTM    S1933731   5.293   8.494   4.249 -0.0559 -0.4254  0.0384
   38TAL   C18533732   5.611   8.349   4.466 -0.1781  0.1643  0.1915
   38TAL   C18633733   5.590   8.347   4.624  0.4697 -0.0075 -0.0379
   38TAL   C18733734   5.494   8.244   4.691 -0.2339  0.3631 -0.2218
   38TAL   C18833735   5.344   8.246   4.650 -0.0557  0.1069 -0.2166
   38TAL   C18933736   5.272   8.376   4.674  0.4831  0.1094  0.3439
   38TAL   C19033737   5.143   8.396   4.596  0.3858 -0.1118  0.4794
   39HTM   C19133738   5.477   8.633   4.402 -0.1257 -0.2490  0.2530
   39HTM   C19233739   5.411   8.699   4.501 -0.5574  0.0658 -0.2389
   39HTM   C19333740   5.486   8.810   4.556 -0.8645  0.3438 -0.3808
   39HTM   C19433741   5.608   8.828   4.498 -0.6670  0.2399  0.0030
   39HTM    S2033742   5.639   8.705   4.369 -0.0732 -0.2201  0.5778
   40TAL   C19533743   5.435   8.887   4.677  0.4658 -0.4669 -0.2644
   40TAL   C19633744   5.317   8.843   4.762  0.0492  0.6307 -0.3787
   40TAL   C19733745   5.173   8.826   4.692  0.0540  0.8146 -0.5758
   40TAL   C19833746   5.064   8.827   4.799 -0.1027  0.4152  0.1727
   40TAL   C19933747   4.925   8.861   4.753  0.0033  0.6343 -0.4549
   40TAL   C20033748   4.814   8.801   4.843 -0.6472 -0.2557 -0.0925
   41HTM   C20133749   5.720   8.912   4.538  0.0592 -0.1986  0.2057
   41HTM   C20233750   5.766   8.918   4.666  0.1028  0.0539  0.1781
   41HTM   C20333751   5.899   8.973   4.677  0.0300  0.2599  0.0451
   41HTM   C20433752   5.955   9.008   4.558 -0.0688  0.1643 -0.0290
   41HTM    S2133753   5.842   8.974   4.421 -0.0780 -0.1960  0.0646
   42TAL   C20533754   5.958   8.991   4.811 -0.0374 -0.0883  0.5081
   42TAL   C20633755   5.890   9.097   4.905  0.4232  0.4164  0.4832
   42TAL   C20733756   5.960   9.112   5.041 -0.1771 -0.6590  0.5680
   42TAL   C20833757   6.098   9.178   5.040  0.1250 -0.9013  0.6873
   42TAL   C20933758   6.134   9.232   5.178 -0.0604 -0.1203 -0.3450
   42TAL   C21033759   6.278   9.273   5.179 -0.1956  0.3447 -0.3594
   43HTM   C21133760   6.078   9.075   4.529 -0.2208 -0.2072  0.4710
   43HTM   C21233761   6.102   9.145   4.414 -0.4241 -0.4238  0.2944
   43HTM   C21333762   6.241   9.178   4.396 -0.4990 -0.1979  0.1352
   43HTM   C21433763   6.322   9.134   4.496 -0.3529  0.1909  0.1903
   43HTM    S2233764   6.229   9.046   4.623 -0.1075  0.3027  0.4500
   44TAL   C21533765   6.289   9.263   4.269 -0.2629 -1.0573  0.6693
   44TAL   C21633766   6.221   9.400   4.247 -0.0055  0.6309 -0.2529
   44TAL   C21733767   6.276   9.474   4.126 -0.8538 -0.0678 -0.2548
   44TAL   C21833768   6.241   9.432   3.986 -0.0562 -0.5650  0.0792
   44TAL   C21933769   6.329   9.515   3.898 -0.0060  0.3300 -0.3203
   44TAL   C22033770   6.317   9.478   3.751  0.1969  0.8181 -0.4507
   45HTM   C22133771   6.463   9.144   4.514 -0.2549 -0.3652 -0.2392
   45HTM   C22233772   6.537   9.074   4.604 -0.5033  0.1203  0.3533
   45HTM   C22333773   6.676   9.111   4.605 -0.6154  0.5363  0.9606
   45HTM   C22433774   6.708   9.210   4.516 -0.4523  0.3680  0.8312
   45HTM    S2333775   6.563   9.264   4.423 -0.1424 -0.3344 -0.0751
   46TAL   C22533776   6.762   9.039   4.703 -0.0679  1.0026 -0.2988
   46TAL   C22633777   6.850   9.129   4.794  0.4262  0.5387  0.6418
   46TAL   C22733778   6.931   9.039   4.882 -0.3673 -0.6279 -0.5769
   46TAL   C22833779   7.045   9.111   4.953  0.6787  0.9722 -0.0193
   46TAL   C22933780   7.136   9.009   5.022 -0.2137 -0.5900 -0.7971
   46TAL   C23033781   7.229   8.925   4.937  0.0103  0.0940 -0.3627
   47HTM   C23133782   6.832   9.267   4.466  0.0849 -0.4077 -0.4300
   47HTM   C23233783   6.876   9.396   4.463 -0.2871 -0.2909 -1.0347
   47HTM   C23333784   7.016   9.408   4.430 -0.3645 -0.0317 -1.2684
   47HTM   C23433785   7.077   9.289   4.408 -0.0517  0.0493 -0.8417
   47HTM    S2433786   6.963   9.150   4.428  0.3681 -0.1976 -0.1062
   48TAL   C23533787   7.090   9.539   4.426 -0.4211  0.3811  0.2001
   48TAL   C23633788   7.239   9.549   4.393 -0.4205 -0.5029  0.4118
   48TAL   C23733789   7.286   9.694   4.385  0.3762 -0.1653  0.2325
   48TAL   C23833790   7.440   9.712   4.361  1.3041  0.1095 -0.4975
   48TAL   C23933791   7.483   9.862   4.339  0.4663 -0.2070  0.5450
   48TAL   C24033792   7.630   9.882   4.310 -0.1123  0.3551 -0.1337
   9.0000   9.0000   8.99950
